natom:   96
displacements:
- atom:    1
  direction:
    [   1.0000000000000000,  0.0000000000000000,  0.0000000000000000 ]
  displacement:
    [   0.0100000000000000,  0.0000000000000000,  0.0000000000000000 ]
- atom:    1
  direction:
    [  -1.0000000000000000,  0.0000000000000000,  0.0000000000000000 ]
  displacement:
    [  -0.0100000000000000,  0.0000000000000000,  0.0000000000000000 ]
- atom:    1
  direction:
    [   0.0000000000000000,  1.0000000000000000,  0.0000000000000000 ]
  displacement:
    [   0.0000024767397627,  0.0099999996932880,  0.0000000000000000 ]
- atom:    1
  direction:
    [   0.0000000000000000, -1.0000000000000000,  0.0000000000000000 ]
  displacement:
    [  -0.0000024767397627, -0.0099999996932880,  0.0000000000000000 ]
- atom:    1
  direction:
    [   0.0000000000000000,  0.0000000000000000,  1.0000000000000000 ]
  displacement:
    [   0.0002192205163366, -0.0000005736116214,  0.0099975968130440 ]
- atom:    1
  direction:
    [   0.0000000000000000,  0.0000000000000000, -1.0000000000000000 ]
  displacement:
    [  -0.0002192205163366,  0.0000005736116214, -0.0099975968130440 ]
- atom:    9
  direction:
    [   1.0000000000000000,  0.0000000000000000,  0.0000000000000000 ]
  displacement:
    [   0.0100000000000000,  0.0000000000000000,  0.0000000000000000 ]
- atom:    9
  direction:
    [  -1.0000000000000000,  0.0000000000000000,  0.0000000000000000 ]
  displacement:
    [  -0.0100000000000000,  0.0000000000000000,  0.0000000000000000 ]
- atom:    9
  direction:
    [   0.0000000000000000,  1.0000000000000000,  0.0000000000000000 ]
  displacement:
    [   0.0000024767397627,  0.0099999996932880,  0.0000000000000000 ]
- atom:    9
  direction:
    [   0.0000000000000000, -1.0000000000000000,  0.0000000000000000 ]
  displacement:
    [  -0.0000024767397627, -0.0099999996932880,  0.0000000000000000 ]
- atom:    9
  direction:
    [   0.0000000000000000,  0.0000000000000000,  1.0000000000000000 ]
  displacement:
    [   0.0002192205163366, -0.0000005736116214,  0.0099975968130440 ]
- atom:    9
  direction:
    [   0.0000000000000000,  0.0000000000000000, -1.0000000000000000 ]
  displacement:
    [  -0.0002192205163366,  0.0000005736116214, -0.0099975968130440 ]
- atom:   17
  direction:
    [   1.0000000000000000,  0.0000000000000000,  0.0000000000000000 ]
  displacement:
    [   0.0100000000000000,  0.0000000000000000,  0.0000000000000000 ]
- atom:   17
  direction:
    [  -1.0000000000000000,  0.0000000000000000,  0.0000000000000000 ]
  displacement:
    [  -0.0100000000000000,  0.0000000000000000,  0.0000000000000000 ]
- atom:   17
  direction:
    [   0.0000000000000000,  1.0000000000000000,  0.0000000000000000 ]
  displacement:
    [   0.0000024767397627,  0.0099999996932880,  0.0000000000000000 ]
- atom:   17
  direction:
    [   0.0000000000000000, -1.0000000000000000,  0.0000000000000000 ]
  displacement:
    [  -0.0000024767397627, -0.0099999996932880,  0.0000000000000000 ]
- atom:   17
  direction:
    [   0.0000000000000000,  0.0000000000000000,  1.0000000000000000 ]
  displacement:
    [   0.0002192205163366, -0.0000005736116214,  0.0099975968130440 ]
- atom:   17
  direction:
    [   0.0000000000000000,  0.0000000000000000, -1.0000000000000000 ]
  displacement:
    [  -0.0002192205163366,  0.0000005736116214, -0.0099975968130440 ]
- atom:   25
  direction:
    [   1.0000000000000000,  0.0000000000000000,  0.0000000000000000 ]
  displacement:
    [   0.0100000000000000,  0.0000000000000000,  0.0000000000000000 ]
- atom:   25
  direction:
    [  -1.0000000000000000,  0.0000000000000000,  0.0000000000000000 ]
  displacement:
    [  -0.0100000000000000,  0.0000000000000000,  0.0000000000000000 ]
- atom:   25
  direction:
    [   0.0000000000000000,  1.0000000000000000,  0.0000000000000000 ]
  displacement:
    [   0.0000024767397627,  0.0099999996932880,  0.0000000000000000 ]
- atom:   25
  direction:
    [   0.0000000000000000, -1.0000000000000000,  0.0000000000000000 ]
  displacement:
    [  -0.0000024767397627, -0.0099999996932880,  0.0000000000000000 ]
- atom:   25
  direction:
    [   0.0000000000000000,  0.0000000000000000,  1.0000000000000000 ]
  displacement:
    [   0.0002192205163366, -0.0000005736116214,  0.0099975968130440 ]
- atom:   25
  direction:
    [   0.0000000000000000,  0.0000000000000000, -1.0000000000000000 ]
  displacement:
    [  -0.0002192205163366,  0.0000005736116214, -0.0099975968130440 ]
- atom:   33
  direction:
    [   1.0000000000000000,  0.0000000000000000,  0.0000000000000000 ]
  displacement:
    [   0.0100000000000000,  0.0000000000000000,  0.0000000000000000 ]
- atom:   33
  direction:
    [  -1.0000000000000000,  0.0000000000000000,  0.0000000000000000 ]
  displacement:
    [  -0.0100000000000000,  0.0000000000000000,  0.0000000000000000 ]
- atom:   33
  direction:
    [   0.0000000000000000,  1.0000000000000000,  0.0000000000000000 ]
  displacement:
    [   0.0000024767397627,  0.0099999996932880,  0.0000000000000000 ]
- atom:   33
  direction:
    [   0.0000000000000000, -1.0000000000000000,  0.0000000000000000 ]
  displacement:
    [  -0.0000024767397627, -0.0099999996932880,  0.0000000000000000 ]
- atom:   33
  direction:
    [   0.0000000000000000,  0.0000000000000000,  1.0000000000000000 ]
  displacement:
    [   0.0002192205163366, -0.0000005736116214,  0.0099975968130440 ]
- atom:   33
  direction:
    [   0.0000000000000000,  0.0000000000000000, -1.0000000000000000 ]
  displacement:
    [  -0.0002192205163366,  0.0000005736116214, -0.0099975968130440 ]
- atom:   41
  direction:
    [   1.0000000000000000,  0.0000000000000000,  0.0000000000000000 ]
  displacement:
    [   0.0100000000000000,  0.0000000000000000,  0.0000000000000000 ]
- atom:   41
  direction:
    [  -1.0000000000000000,  0.0000000000000000,  0.0000000000000000 ]
  displacement:
    [  -0.0100000000000000,  0.0000000000000000,  0.0000000000000000 ]
- atom:   41
  direction:
    [   0.0000000000000000,  1.0000000000000000,  0.0000000000000000 ]
  displacement:
    [   0.0000024767397627,  0.0099999996932880,  0.0000000000000000 ]
- atom:   41
  direction:
    [   0.0000000000000000, -1.0000000000000000,  0.0000000000000000 ]
  displacement:
    [  -0.0000024767397627, -0.0099999996932880,  0.0000000000000000 ]
- atom:   41
  direction:
    [   0.0000000000000000,  0.0000000000000000,  1.0000000000000000 ]
  displacement:
    [   0.0002192205163366, -0.0000005736116214,  0.0099975968130440 ]
- atom:   41
  direction:
    [   0.0000000000000000,  0.0000000000000000, -1.0000000000000000 ]
  displacement:
    [  -0.0002192205163366,  0.0000005736116214, -0.0099975968130440 ]
- atom:   49
  direction:
    [   1.0000000000000000,  0.0000000000000000,  0.0000000000000000 ]
  displacement:
    [   0.0100000000000000,  0.0000000000000000,  0.0000000000000000 ]
- atom:   49
  direction:
    [  -1.0000000000000000,  0.0000000000000000,  0.0000000000000000 ]
  displacement:
    [  -0.0100000000000000,  0.0000000000000000,  0.0000000000000000 ]
- atom:   49
  direction:
    [   0.0000000000000000,  1.0000000000000000,  0.0000000000000000 ]
  displacement:
    [   0.0000024767397627,  0.0099999996932880,  0.0000000000000000 ]
- atom:   49
  direction:
    [   0.0000000000000000, -1.0000000000000000,  0.0000000000000000 ]
  displacement:
    [  -0.0000024767397627, -0.0099999996932880,  0.0000000000000000 ]
- atom:   49
  direction:
    [   0.0000000000000000,  0.0000000000000000,  1.0000000000000000 ]
  displacement:
    [   0.0002192205163366, -0.0000005736116214,  0.0099975968130440 ]
- atom:   49
  direction:
    [   0.0000000000000000,  0.0000000000000000, -1.0000000000000000 ]
  displacement:
    [  -0.0002192205163366,  0.0000005736116214, -0.0099975968130440 ]
- atom:   57
  direction:
    [   1.0000000000000000,  0.0000000000000000,  0.0000000000000000 ]
  displacement:
    [   0.0100000000000000,  0.0000000000000000,  0.0000000000000000 ]
- atom:   57
  direction:
    [  -1.0000000000000000,  0.0000000000000000,  0.0000000000000000 ]
  displacement:
    [  -0.0100000000000000,  0.0000000000000000,  0.0000000000000000 ]
- atom:   57
  direction:
    [   0.0000000000000000,  1.0000000000000000,  0.0000000000000000 ]
  displacement:
    [   0.0000024767397627,  0.0099999996932880,  0.0000000000000000 ]
- atom:   57
  direction:
    [   0.0000000000000000, -1.0000000000000000,  0.0000000000000000 ]
  displacement:
    [  -0.0000024767397627, -0.0099999996932880,  0.0000000000000000 ]
- atom:   57
  direction:
    [   0.0000000000000000,  0.0000000000000000,  1.0000000000000000 ]
  displacement:
    [   0.0002192205163366, -0.0000005736116214,  0.0099975968130440 ]
- atom:   57
  direction:
    [   0.0000000000000000,  0.0000000000000000, -1.0000000000000000 ]
  displacement:
    [  -0.0002192205163366,  0.0000005736116214, -0.0099975968130440 ]
- atom:   65
  direction:
    [   1.0000000000000000,  0.0000000000000000,  0.0000000000000000 ]
  displacement:
    [   0.0100000000000000,  0.0000000000000000,  0.0000000000000000 ]
- atom:   65
  direction:
    [  -1.0000000000000000,  0.0000000000000000,  0.0000000000000000 ]
  displacement:
    [  -0.0100000000000000,  0.0000000000000000,  0.0000000000000000 ]
- atom:   65
  direction:
    [   0.0000000000000000,  1.0000000000000000,  0.0000000000000000 ]
  displacement:
    [   0.0000024767397627,  0.0099999996932880,  0.0000000000000000 ]
- atom:   65
  direction:
    [   0.0000000000000000, -1.0000000000000000,  0.0000000000000000 ]
  displacement:
    [  -0.0000024767397627, -0.0099999996932880,  0.0000000000000000 ]
- atom:   65
  direction:
    [   0.0000000000000000,  0.0000000000000000,  1.0000000000000000 ]
  displacement:
    [   0.0002192205163366, -0.0000005736116214,  0.0099975968130440 ]
- atom:   65
  direction:
    [   0.0000000000000000,  0.0000000000000000, -1.0000000000000000 ]
  displacement:
    [  -0.0002192205163366,  0.0000005736116214, -0.0099975968130440 ]
- atom:   73
  direction:
    [   1.0000000000000000,  0.0000000000000000,  0.0000000000000000 ]
  displacement:
    [   0.0100000000000000,  0.0000000000000000,  0.0000000000000000 ]
- atom:   73
  direction:
    [  -1.0000000000000000,  0.0000000000000000,  0.0000000000000000 ]
  displacement:
    [  -0.0100000000000000,  0.0000000000000000,  0.0000000000000000 ]
- atom:   73
  direction:
    [   0.0000000000000000,  1.0000000000000000,  0.0000000000000000 ]
  displacement:
    [   0.0000024767397627,  0.0099999996932880,  0.0000000000000000 ]
- atom:   73
  direction:
    [   0.0000000000000000, -1.0000000000000000,  0.0000000000000000 ]
  displacement:
    [  -0.0000024767397627, -0.0099999996932880,  0.0000000000000000 ]
- atom:   73
  direction:
    [   0.0000000000000000,  0.0000000000000000,  1.0000000000000000 ]
  displacement:
    [   0.0002192205163366, -0.0000005736116214,  0.0099975968130440 ]
- atom:   73
  direction:
    [   0.0000000000000000,  0.0000000000000000, -1.0000000000000000 ]
  displacement:
    [  -0.0002192205163366,  0.0000005736116214, -0.0099975968130440 ]
- atom:   81
  direction:
    [   1.0000000000000000,  0.0000000000000000,  0.0000000000000000 ]
  displacement:
    [   0.0100000000000000,  0.0000000000000000,  0.0000000000000000 ]
- atom:   81
  direction:
    [  -1.0000000000000000,  0.0000000000000000,  0.0000000000000000 ]
  displacement:
    [  -0.0100000000000000,  0.0000000000000000,  0.0000000000000000 ]
- atom:   81
  direction:
    [   0.0000000000000000,  1.0000000000000000,  0.0000000000000000 ]
  displacement:
    [   0.0000024767397627,  0.0099999996932880,  0.0000000000000000 ]
- atom:   81
  direction:
    [   0.0000000000000000, -1.0000000000000000,  0.0000000000000000 ]
  displacement:
    [  -0.0000024767397627, -0.0099999996932880,  0.0000000000000000 ]
- atom:   81
  direction:
    [   0.0000000000000000,  0.0000000000000000,  1.0000000000000000 ]
  displacement:
    [   0.0002192205163366, -0.0000005736116214,  0.0099975968130440 ]
- atom:   81
  direction:
    [   0.0000000000000000,  0.0000000000000000, -1.0000000000000000 ]
  displacement:
    [  -0.0002192205163366,  0.0000005736116214, -0.0099975968130440 ]
- atom:   89
  direction:
    [   1.0000000000000000,  0.0000000000000000,  0.0000000000000000 ]
  displacement:
    [   0.0100000000000000,  0.0000000000000000,  0.0000000000000000 ]
- atom:   89
  direction:
    [  -1.0000000000000000,  0.0000000000000000,  0.0000000000000000 ]
  displacement:
    [  -0.0100000000000000,  0.0000000000000000,  0.0000000000000000 ]
- atom:   89
  direction:
    [   0.0000000000000000,  1.0000000000000000,  0.0000000000000000 ]
  displacement:
    [   0.0000024767397627,  0.0099999996932880,  0.0000000000000000 ]
- atom:   89
  direction:
    [   0.0000000000000000, -1.0000000000000000,  0.0000000000000000 ]
  displacement:
    [  -0.0000024767397627, -0.0099999996932880,  0.0000000000000000 ]
- atom:   89
  direction:
    [   0.0000000000000000,  0.0000000000000000,  1.0000000000000000 ]
  displacement:
    [   0.0002192205163366, -0.0000005736116214,  0.0099975968130440 ]
- atom:   89
  direction:
    [   0.0000000000000000,  0.0000000000000000, -1.0000000000000000 ]
  displacement:
    [  -0.0002192205163366,  0.0000005736116214, -0.0099975968130440 ]
lattice:
- [   13.080699920600001,   0.000000000000000,   0.000000000000000 ]
- [    0.003208824200000,  12.955838759800001,   0.000000000000000 ]
- [    0.290644973000000,  -0.000760500600000,  13.254923874599999 ]
atoms:
- symbol: C  # 1
  position: [   0.20406802000000,  0.24986365450000,  0.24348922050000 ]
- symbol: C  # 2
  position: [   0.70406802000000,  0.24986365450000,  0.24348922050000 ]
- symbol: C  # 3
  position: [   0.20406802000000,  0.74986365450000,  0.24348922050000 ]
- symbol: C  # 4
  position: [   0.70406802000000,  0.74986365450000,  0.24348922050000 ]
- symbol: C  # 5
  position: [   0.20406802000000,  0.24986365450000,  0.74348922050000 ]
- symbol: C  # 6
  position: [   0.70406802000000,  0.24986365450000,  0.74348922050000 ]
- symbol: C  # 7
  position: [   0.20406802000000,  0.74986365450000,  0.74348922050000 ]
- symbol: C  # 8
  position: [   0.70406802000000,  0.74986365450000,  0.74348922050000 ]
- symbol: N  # 9
  position: [   0.31515851600000,  0.24990856650000,  0.26274466500000 ]
- symbol: N  # 10
  position: [   0.81515851600000,  0.24990856650000,  0.26274466500000 ]
- symbol: N  # 11
  position: [   0.31515851600000,  0.74990856650000,  0.26274466500000 ]
- symbol: N  # 12
  position: [   0.81515851600000,  0.74990856650000,  0.26274466500000 ]
- symbol: N  # 13
  position: [   0.31515851600000,  0.24990856650000,  0.76274466500000 ]
- symbol: N  # 14
  position: [   0.81515851600000,  0.24990856650000,  0.76274466500000 ]
- symbol: N  # 15
  position: [   0.31515851600000,  0.74990856650000,  0.76274466500000 ]
- symbol: N  # 16
  position: [   0.81515851600000,  0.74990856650000,  0.76274466500000 ]
- symbol: H  # 17
  position: [   0.19273918850000,  0.24960844200000,  0.16161403050000 ]
- symbol: H  # 18
  position: [   0.69273918850000,  0.24960844200000,  0.16161403050000 ]
- symbol: H  # 19
  position: [   0.19273918850000,  0.74960844200000,  0.16161403050000 ]
- symbol: H  # 20
  position: [   0.69273918850000,  0.74960844200000,  0.16161403050000 ]
- symbol: H  # 21
  position: [   0.19273918850000,  0.24960844200000,  0.66161403050000 ]
- symbol: H  # 22
  position: [   0.69273918850000,  0.24960844200000,  0.66161403050000 ]
- symbol: H  # 23
  position: [   0.19273918850000,  0.74960844200000,  0.66161403050000 ]
- symbol: H  # 24
  position: [   0.69273918850000,  0.74960844200000,  0.66161403050000 ]
- symbol: H  # 25
  position: [   0.16992616650000,  0.31951129450000,  0.27751493450000 ]
- symbol: H  # 26
  position: [   0.66992616650000,  0.31951129450000,  0.27751493450000 ]
- symbol: H  # 27
  position: [   0.16992616650000,  0.81951129450000,  0.27751493450000 ]
- symbol: H  # 28
  position: [   0.66992616650000,  0.81951129450000,  0.27751493450000 ]
- symbol: H  # 29
  position: [   0.16992616650000,  0.31951129450000,  0.77751493450000 ]
- symbol: H  # 30
  position: [   0.66992616650000,  0.31951129450000,  0.77751493450000 ]
- symbol: H  # 31
  position: [   0.16992616650000,  0.81951129450000,  0.77751493450000 ]
- symbol: H  # 32
  position: [   0.66992616650000,  0.81951129450000,  0.77751493450000 ]
- symbol: H  # 33
  position: [   0.16994465900000,  0.18043220050000,  0.27792790550000 ]
- symbol: H  # 34
  position: [   0.66994465900000,  0.18043220050000,  0.27792790550000 ]
- symbol: H  # 35
  position: [   0.16994465900000,  0.68043220050000,  0.27792790550000 ]
- symbol: H  # 36
  position: [   0.66994465900000,  0.68043220050000,  0.27792790550000 ]
- symbol: H  # 37
  position: [   0.16994465900000,  0.18043220050000,  0.77792790550000 ]
- symbol: H  # 38
  position: [   0.66994465900000,  0.18043220050000,  0.77792790550000 ]
- symbol: H  # 39
  position: [   0.16994465900000,  0.68043220050000,  0.77792790550000 ]
- symbol: H  # 40
  position: [   0.66994465900000,  0.68043220050000,  0.77792790550000 ]
- symbol: H  # 41
  position: [   0.35117316250000,  0.31530797500000,  0.23244759450000 ]
- symbol: H  # 42
  position: [   0.85117316250000,  0.31530797500000,  0.23244759450000 ]
- symbol: H  # 43
  position: [   0.35117316250000,  0.81530797500000,  0.23244759450000 ]
- symbol: H  # 44
  position: [   0.85117316250000,  0.81530797500000,  0.23244759450000 ]
- symbol: H  # 45
  position: [   0.35117316250000,  0.31530797500000,  0.73244759450000 ]
- symbol: H  # 46
  position: [   0.85117316250000,  0.31530797500000,  0.73244759450000 ]
- symbol: H  # 47
  position: [   0.35117316250000,  0.81530797500000,  0.73244759450000 ]
- symbol: H  # 48
  position: [   0.85117316250000,  0.81530797500000,  0.73244759450000 ]
- symbol: H  # 49
  position: [   0.35119277250000,  0.18436673300000,  0.23272119450000 ]
- symbol: H  # 50
  position: [   0.85119277250000,  0.18436673300000,  0.23272119450000 ]
- symbol: H  # 51
  position: [   0.35119277250000,  0.68436673300000,  0.23272119450000 ]
- symbol: H  # 52
  position: [   0.85119277250000,  0.68436673300000,  0.23272119450000 ]
- symbol: H  # 53
  position: [   0.35119277250000,  0.18436673300000,  0.73272119450000 ]
- symbol: H  # 54
  position: [   0.85119277250000,  0.18436673300000,  0.73272119450000 ]
- symbol: H  # 55
  position: [   0.35119277250000,  0.68436673300000,  0.73272119450000 ]
- symbol: H  # 56
  position: [   0.85119277250000,  0.68436673300000,  0.73272119450000 ]
- symbol: H  # 57
  position: [   0.33105525350000,  0.25008359550000,  0.33997780100000 ]
- symbol: H  # 58
  position: [   0.83105525350000,  0.25008359550000,  0.33997780100000 ]
- symbol: H  # 59
  position: [   0.33105525350000,  0.75008359550000,  0.33997780100000 ]
- symbol: H  # 60
  position: [   0.83105525350000,  0.75008359550000,  0.33997780100000 ]
- symbol: H  # 61
  position: [   0.33105525350000,  0.25008359550000,  0.83997780100000 ]
- symbol: H  # 62
  position: [   0.83105525350000,  0.25008359550000,  0.83997780100000 ]
- symbol: H  # 63
  position: [   0.33105525350000,  0.75008359550000,  0.83997780100000 ]
- symbol: H  # 64
  position: [   0.83105525350000,  0.75008359550000,  0.83997780100000 ]
- symbol: Pb # 65
  position: [   0.43791973600000,  0.00006167700000,  0.49054408050000 ]
- symbol: Pb # 66
  position: [   0.93791973600000,  0.00006167700000,  0.49054408050000 ]
- symbol: Pb # 67
  position: [   0.43791973600000,  0.50006167700000,  0.49054408050000 ]
- symbol: Pb # 68
  position: [   0.93791973600000,  0.50006167700000,  0.49054408050000 ]
- symbol: Pb # 69
  position: [   0.43791973600000,  0.00006167700000,  0.99054408050000 ]
- symbol: Pb # 70
  position: [   0.93791973600000,  0.00006167700000,  0.99054408050000 ]
- symbol: Pb # 71
  position: [   0.43791973600000,  0.50006167700000,  0.99054408050000 ]
- symbol: Pb # 72
  position: [   0.93791973600000,  0.50006167700000,  0.99054408050000 ]
- symbol: I  # 73
  position: [   0.43871471300000,  0.49985200150000,  0.22645327450000 ]
- symbol: I  # 74
  position: [   0.93871471300000,  0.49985200150000,  0.22645327450000 ]
- symbol: I  # 75
  position: [   0.43871471300000,  0.99985200150000,  0.22645327450000 ]
- symbol: I  # 76
  position: [   0.93871471300000,  0.99985200150000,  0.22645327450000 ]
- symbol: I  # 77
  position: [   0.43871471300000,  0.49985200150000,  0.72645327450000 ]
- symbol: I  # 78
  position: [   0.93871471300000,  0.49985200150000,  0.72645327450000 ]
- symbol: I  # 79
  position: [   0.43871471300000,  0.99985200150000,  0.72645327450000 ]
- symbol: I  # 80
  position: [   0.93871471300000,  0.99985200150000,  0.72645327450000 ]
- symbol: I  # 81
  position: [   0.43917489050000,  0.25026401900000,  0.49887737650000 ]
- symbol: I  # 82
  position: [   0.93917489050000,  0.25026401900000,  0.49887737650000 ]
- symbol: I  # 83
  position: [   0.43917489050000,  0.75026401900000,  0.49887737650000 ]
- symbol: I  # 84
  position: [   0.93917489050000,  0.75026401900000,  0.49887737650000 ]
- symbol: I  # 85
  position: [   0.43917489050000,  0.25026401900000,  0.99887737650000 ]
- symbol: I  # 86
  position: [   0.93917489050000,  0.25026401900000,  0.99887737650000 ]
- symbol: I  # 87
  position: [   0.43917489050000,  0.75026401900000,  0.99887737650000 ]
- symbol: I  # 88
  position: [   0.93917489050000,  0.75026401900000,  0.99887737650000 ]
- symbol: I  # 89
  position: [   0.20682236550000,  0.00033109650000,  0.46925497050000 ]
- symbol: I  # 90
  position: [   0.70682236550000,  0.00033109650000,  0.46925497050000 ]
- symbol: I  # 91
  position: [   0.20682236550000,  0.50033109650000,  0.46925497050000 ]
- symbol: I  # 92
  position: [   0.70682236550000,  0.50033109650000,  0.46925497050000 ]
- symbol: I  # 93
  position: [   0.20682236550000,  0.00033109650000,  0.96925497050000 ]
- symbol: I  # 94
  position: [   0.70682236550000,  0.00033109650000,  0.96925497050000 ]
- symbol: I  # 95
  position: [   0.20682236550000,  0.50033109650000,  0.96925497050000 ]
- symbol: I  # 96
  position: [   0.70682236550000,  0.50033109650000,  0.96925497050000 ]
