96   
72   

1    
  0.0100000000000000   0.0000000000000000   0.0000000000000000
  -0.4376203600   -0.0003607500    0.0215785500
  -0.0002322300   -0.0004612100    0.0020160300
  -0.0005028100   -0.0004611100    0.0019950400
  -0.0002876000   -0.0004613900    0.0020088300
  -0.0004469400   -0.0004611700    0.0019990500
  -0.0003086500   -0.0004612200    0.0020336400
  -0.0004229400   -0.0004611900    0.0019963500
  -0.0003324900   -0.0004612300    0.0020139700
   0.1869103700    0.0005049700    0.0195370200
  -0.0022873000    0.0004635700    0.0023266300
  -0.0020155300    0.0004636200    0.0023145000
  -0.0022753500    0.0004639900    0.0023668200
  -0.0020874800    0.0004639200    0.0023655800
  -0.0022496200    0.0004637800    0.0023017500
  -0.0021163300    0.0004633800    0.0023749100
  -0.0022127400    0.0004636900    0.0023383300
   0.0463570100   -0.0000267600    0.0396007000
  -0.0013408400   -0.0001428300    0.0007460700
  -0.0013458000   -0.0001429600    0.0007681600
  -0.0013360900   -0.0001428400    0.0007507300
  -0.0013653700   -0.0001430000    0.0007593000
  -0.0013062700   -0.0001430300    0.0007589700
  -0.0013423500   -0.0001428600    0.0007606900
  -0.0013446800   -0.0001428100    0.0007613500
   0.0772146000   -0.0822656700   -0.0404729500
  -0.0012262400    0.0008663300    0.0020123300
  -0.0012346400    0.0008529500    0.0019961700
  -0.0012371300    0.0008290200    0.0020221100
  -0.0012484000    0.0008253200    0.0020140500
  -0.0012509300    0.0008403200    0.0020125400
  -0.0012476900    0.0008350500    0.0020141500
  -0.0012539500    0.0008323300    0.0020074700
   0.0773897600    0.0826147200   -0.0416460600
  -0.0010625300   -0.0002494700    0.0013476700
  -0.0010709200   -0.0002360800    0.0013309700
  -0.0010736500   -0.0002121000    0.0013571600
  -0.0010845300   -0.0002084700    0.0013490500
  -0.0010873200   -0.0002233900    0.0013474300
  -0.0010839900   -0.0002181100    0.0013491900
  -0.0010902100   -0.0002154100    0.0013425300
   0.0174121000    0.0025696900    0.0030447500
  -0.0005077900    0.0000987500    0.0009298600
  -0.0007304300   -0.0001003900    0.0009544200
  -0.0005463700    0.0001836700    0.0009207000
  -0.0006275300    0.0001294100    0.0010048600
  -0.0005689000    0.0000763800    0.0009125000
  -0.0006191600    0.0000389600    0.0009436300
  -0.0005702700    0.0000919900    0.0009315500
   0.0173641600   -0.0033611100    0.0028911200
  -0.0005574600   -0.0008872200    0.0007649100
  -0.0007800800   -0.0006879700    0.0007900000
  -0.0005959300   -0.0009726500    0.0007556300
  -0.0006766900   -0.0009183200    0.0008390000
  -0.0006186000   -0.0008650400    0.0007479200
  -0.0006690900   -0.0008266900    0.0007787300
  -0.0006198800   -0.0008805200    0.0007666900
   0.0087655200   -0.0003591600    0.0077221600
  -0.0003645900   -0.0003718400    0.0016022000
  -0.0004591400   -0.0003720500    0.0016140300
  -0.0004210900   -0.0003718400    0.0015641200
  -0.0005275900   -0.0003721500    0.0015209200
  -0.0003950700   -0.0003718600    0.0016474100
  -0.0004862300   -0.0003719200    0.0015207800
  -0.0004137900   -0.0003718900    0.0015891400
  -0.0008543700   -0.0005784400    0.0013312000
  -0.0003717400    0.0001589100    0.0009597900
  -0.0008519500    0.0005785100    0.0013309400
  -0.0003728000   -0.0001644200    0.0009591800
  -0.0008229900   -0.0000777000    0.0006456800
  -0.0004109900    0.0000843700    0.0012501400
  -0.0008212500    0.0000750000    0.0006459100
  -0.0004114000   -0.0000890600    0.0012528800
   0.0019164100    0.0007116000   -0.0079317300
   0.0025040500    0.0020045200   -0.0081929700
   0.0019143400    0.0032682500   -0.0079314000
   0.0025030400    0.0019702800   -0.0081928800
   0.0025578700    0.0019153800   -0.0081787000
   0.0025012700    0.0019994700   -0.0081375800
   0.0025580000    0.0020592500   -0.0081779400
   0.0025011000    0.0019760000   -0.0081376400
   0.0040829600   -0.0014005600   -0.0022442400
   0.0049352100   -0.0013955200   -0.0008574500
   0.0050341600   -0.0013970700   -0.0009388200
   0.0049742300   -0.0013965200   -0.0008828300
   0.0050241700   -0.0013966800   -0.0004123500
   0.0049892300   -0.0013960000   -0.0009290400
   0.0050398700   -0.0013964600   -0.0008007700
   0.0049736100   -0.0013966100   -0.0009119800
   0.0014000000    0.0000341600   -0.0036154700
   0.0007503100    0.0001033800   -0.0037867200
   0.0013984500    0.0001540100   -0.0036176200
   0.0007498700    0.0000860400   -0.0037865800
   0.0012173100   -0.0000100500   -0.0038795100
   0.0007744800    0.0000904700   -0.0037833400
   0.0012173700    0.0001983500   -0.0038784900
   0.0007742200    0.0000990200   -0.0037834500

1    
 -0.0100000000000000   0.0000000000000000   0.0000000000000000
   0.4184485600   -0.0005771700   -0.0236376100
  -0.0004977100   -0.0004613300    0.0020067800
  -0.0002240300   -0.0004614200    0.0020289600
  -0.0004404700   -0.0004611900    0.0020141900
  -0.0002796400   -0.0004614100    0.0020241700
  -0.0004195600   -0.0004613100    0.0019905000
  -0.0003040900   -0.0004613700    0.0020270700
  -0.0003950200   -0.0004613100    0.0020095800
  -0.1776628800    0.0004278700   -0.0124075900
  -0.0020697000    0.0004638400    0.0023707500
  -0.0023449500    0.0004638500    0.0023832900
  -0.0020817900    0.0004634100    0.0023295500
  -0.0022723500    0.0004635000    0.0023307000
  -0.0021078200    0.0004636700    0.0023975200
  -0.0022431300    0.0004640400    0.0023220400
  -0.0021450200    0.0004637400    0.0023589600
  -0.0478602700   -0.0002546300   -0.0366158100
  -0.0013569300   -0.0001428300    0.0007810400
  -0.0013512900   -0.0001427000    0.0007583900
  -0.0013613400   -0.0001428100    0.0007758100
  -0.0013318400   -0.0001426200    0.0007670400
  -0.0013908900   -0.0001426200    0.0007677500
  -0.0013548700   -0.0001428000    0.0007660200
  -0.0013527700   -0.0001428400    0.0007652100
  -0.0786353100    0.0855104800    0.0454460600
  -0.0012923300    0.0007913100    0.0019990900
  -0.0012831400    0.0008056900    0.0020154600
  -0.0012811900    0.0008293200    0.0019896900
  -0.0012695800    0.0008332300    0.0019977300
  -0.0012674500    0.0008179600    0.0019990500
  -0.0012703500    0.0008233400    0.0019975200
  -0.0012644800    0.0008260900    0.0020041900
  -0.0784838400   -0.0846210600    0.0452991500
  -0.0011285800   -0.0001743300    0.0013337200
  -0.0011194400   -0.0001887200    0.0013506200
  -0.0011172100   -0.0002123800    0.0013246100
  -0.0011060000   -0.0002162400    0.0013327000
  -0.0011036100   -0.0002010400    0.0013341200
  -0.0011065900   -0.0002064200    0.0013324400
  -0.0011007900   -0.0002091700    0.0013391000
  -0.0179755800   -0.0022462600   -0.0011426900
  -0.0006605700    0.0000499200    0.0009439500
  -0.0004344300    0.0002497500    0.0009189700
  -0.0006198600   -0.0000389400    0.0009529200
  -0.0005379800    0.0000177800    0.0008685600
  -0.0005962400    0.0000723300    0.0009612500
  -0.0005461300    0.0001087200    0.0009298100
  -0.0005952000    0.0000552700    0.0009420500
  -0.0180270800    0.0014605500   -0.0013180500
  -0.0007101700   -0.0008384700    0.0007790800
  -0.0004840600   -0.0010383900    0.0007535800
  -0.0006695900   -0.0007491100    0.0007881900
  -0.0005881100   -0.0008058700    0.0007046200
  -0.0006458200   -0.0008606800    0.0007960100
  -0.0005954900   -0.0008979900    0.0007648900
  -0.0006448800   -0.0008437600    0.0007770900
  -0.0093352300   -0.0003842400   -0.0043824900
  -0.0005029600   -0.0003720400    0.0015239600
  -0.0004075300   -0.0003718400    0.0015107300
  -0.0004449100   -0.0003720500    0.0015626100
  -0.0003378700   -0.0003717400    0.0016066000
  -0.0004734600   -0.0003720400    0.0014743000
  -0.0003799500   -0.0003719700    0.0016047400
  -0.0004528100   -0.0003720000    0.0015357200
  -0.0002615900    0.0005756500    0.0008140200
  -0.0007384500   -0.0001656900    0.0011916000
  -0.0002639300   -0.0005841400    0.0008177900
  -0.0007377000    0.0001627200    0.0011915700
  -0.0002889900    0.0000768300    0.0015064300
  -0.0007001900   -0.0000925100    0.0008937600
  -0.0002907400   -0.0000826800    0.0015041600
  -0.0006991600    0.0000893800    0.0008942000
   0.0031093800    0.0032457700   -0.0083617600
   0.0025401200    0.0019635800   -0.0080993400
   0.0031114500    0.0007252500   -0.0083623200
   0.0025411900    0.0020124600   -0.0080994100
   0.0024820300    0.0020601800   -0.0081142600
   0.0025380200    0.0019751500   -0.0081553600
   0.0024819000    0.0019159700   -0.0081149900
   0.0025381400    0.0020001800   -0.0081553400
   0.0058900900   -0.0013923900    0.0004462100
   0.0050563200   -0.0013971900   -0.0009272500
   0.0049546800   -0.0013956600   -0.0008395000
   0.0050135200   -0.0013961300   -0.0008964200
   0.0049601200   -0.0013960400   -0.0013596600
   0.0050045600   -0.0013967500   -0.0008416600
   0.0049487100   -0.0013962300   -0.0009781300
   0.0050144300   -0.0013961200   -0.0008657800
   0.0004700400    0.0001577800   -0.0039471200
   0.0011233900    0.0000861000   -0.0037738200
   0.0004717500    0.0000328600   -0.0039449200
   0.0011238600    0.0001032600   -0.0037739200
   0.0006511900    0.0002001500   -0.0036802600
   0.0011000600    0.0000991900   -0.0037766200
   0.0006511100   -0.0000096300   -0.0036813100
   0.0011003100    0.0000901100   -0.0037765500

1    
  0.0000024767397627   0.0099999996932880   0.0000000000000000
   0.0060303300   -0.5593044500   -0.0059564000
  -0.0003589100   -0.0004274300    0.0020121200
  -0.0003608100   -0.0004026200    0.0020114900
  -0.0003594900   -0.0004864500    0.0020121200
  -0.0003603500   -0.0004513400    0.0020116200
  -0.0003594700   -0.0004603900    0.0020119200
  -0.0003602800   -0.0004699900    0.0020122700
  -0.0003600400   -0.0004622600    0.0020120900
  -0.0025659300    0.0865883100    0.0027001600
  -0.0021842300    0.0004764400    0.0023477700
  -0.0021829000    0.0006327500    0.0023482300
  -0.0021848000    0.0003486400    0.0023487900
  -0.0021832700    0.0004581600    0.0023490900
  -0.0021841900    0.0004692200    0.0023484900
  -0.0021838500    0.0004697300    0.0023489100
  -0.0021838900    0.0004599800    0.0023486800
  -0.0013156400    0.0429703000    0.0028124900
  -0.0013482200   -0.0001402300    0.0007627800
  -0.0013481100   -0.0001553800    0.0007627000
  -0.0013480200   -0.0001447800    0.0007627200
  -0.0013483200   -0.0001594100    0.0007625200
  -0.0013479800   -0.0001431100    0.0007627500
  -0.0013482000   -0.0001246500    0.0007630300
  -0.0013481300   -0.0001415900    0.0007627500
  -0.0771441900    0.2243322600    0.0951774300
  -0.0012777700    0.0008266300    0.0019990300
  -0.0012747800    0.0008350300    0.0020079100
  -0.0012389100    0.0008310800    0.0020126100
  -0.0012555600    0.0008317900    0.0020166700
  -0.0012588500    0.0008290900    0.0020057900
  -0.0012641200    0.0008244800    0.0019907600
  -0.0012582600    0.0008297000    0.0020056300
   0.0685890400    0.2135301900   -0.0861480500
  -0.0010760800   -0.0002145800    0.0013481200
  -0.0010790500   -0.0002062400    0.0013389300
  -0.0011140300   -0.0002105800    0.0013346300
  -0.0010983100   -0.0002092500    0.0013303400
  -0.0010946800   -0.0002122600    0.0013410000
  -0.0010897100   -0.0002169000    0.0013557100
  -0.0010953400   -0.0002122300    0.0013411300
   0.0250154100   -0.0050890900    0.0080891600
  -0.0006450600    0.0000156700    0.0009347700
  -0.0007111700   -0.0000853000    0.0009694100
  -0.0005309500    0.0001872700    0.0009129000
  -0.0005795700    0.0000799400    0.0009400900
  -0.0005832900    0.0000703900    0.0009331700
  -0.0005822900    0.0000712100    0.0009299000
  -0.0005792400    0.0000816200    0.0009349000
  -0.0261701500   -0.0060878900   -0.0064749500
  -0.0005651100   -0.0009218300    0.0007729200
  -0.0005031100   -0.0010232500    0.0007371200
  -0.0006808100   -0.0007548000    0.0007938900
  -0.0006330400   -0.0008589300    0.0007663800
  -0.0006292100   -0.0008684800    0.0007724800
  -0.0006298700   -0.0008698100    0.0007770400
  -0.0006328200   -0.0008593900    0.0007718600
  -0.0003199900    0.0000756400    0.0015501900
  -0.0004313000   -0.0003909000    0.0015665100
  -0.0004326000   -0.0003738600    0.0015668600
  -0.0004325000   -0.0003628000    0.0015659700
  -0.0004328100   -0.0003625500    0.0015658700
  -0.0004322600   -0.0003724800    0.0015667700
  -0.0004330500   -0.0003869900    0.0015652200
  -0.0004324800   -0.0003726800    0.0015658800
  -0.0007288800   -0.0000106800    0.0011824200
  -0.0004106300    0.0000639600    0.0009072900
  -0.0003819000   -0.0000154800    0.0009700700
  -0.0007037800    0.0000540500    0.0012397200
  -0.0004187400   -0.0000156100    0.0008401100
  -0.0006216400   -0.0000085100    0.0012361500
  -0.0006922600   -0.0000192800    0.0012979700
  -0.0004911200   -0.0000120200    0.0009144000
   0.0025010500    0.0027607800   -0.0082767100
   0.0025117600    0.0019448000   -0.0080505100
   0.0025226300    0.0027911800   -0.0080108300
   0.0025266600    0.0019428000   -0.0082437600
   0.0025153600    0.0019852400   -0.0081858100
   0.0025209700    0.0019909600   -0.0081668000
   0.0025225200    0.0019839200   -0.0081062900
   0.0025176500    0.0019897700   -0.0081245600
   0.0049948300   -0.0014183200   -0.0008851300
   0.0049902000   -0.0012775800   -0.0008874900
   0.0049925500   -0.0014055100   -0.0008907200
   0.0049926600   -0.0014452700   -0.0008900400
   0.0049923500   -0.0015316700   -0.0008891500
   0.0049917400   -0.0013830700   -0.0008913200
   0.0049927500   -0.0012693600   -0.0008887000
   0.0049925200   -0.0014243700   -0.0008903500
   0.0010271700    0.0003719800   -0.0041801700
   0.0009094000    0.0000988100   -0.0037782500
   0.0008456000    0.0003569900   -0.0034036000
   0.0009589800    0.0000995800   -0.0037834700
   0.0009087400    0.0002444800   -0.0036421800
   0.0008938900    0.0000939100   -0.0037866700
   0.0009650700    0.0002404500   -0.0039125500
   0.0009744600    0.0000947400   -0.0037741200

1    
 -0.0000024767397627  -0.0099999996932880   0.0000000000000000
   0.0060243300    0.5582325400   -0.0059336300
  -0.0003588300   -0.0004950000    0.0020126400
  -0.0003608200   -0.0005197700    0.0020121000
  -0.0003590900   -0.0004360600    0.0020122100
  -0.0003603400   -0.0004712400    0.0020122300
  -0.0003593800   -0.0004620500    0.0020121600
  -0.0003602200   -0.0004524800    0.0020121100
  -0.0003598600   -0.0004601600    0.0020121000
  -0.0027184700   -0.0856547800    0.0026601900
  -0.0021833100    0.0004509500    0.0023474700
  -0.0021818700    0.0002948600    0.0023477700
  -0.0021840700    0.0005788500    0.0023488700
  -0.0021820400    0.0004693300    0.0023493700
  -0.0021832300    0.0004583500    0.0023490200
  -0.0021828600    0.0004577800    0.0023485600
  -0.0021827800    0.0004675700    0.0023484900
  -0.0014917300   -0.0432340800    0.0012819100
  -0.0013483600   -0.0001453300    0.0007631600
  -0.0013482500   -0.0001302000    0.0007630400
  -0.0013480500   -0.0001408000    0.0007629100
  -0.0013483300   -0.0001261300    0.0007628900
  -0.0013480200   -0.0001424500    0.0007629800
  -0.0013482600   -0.0001609300    0.0007631500
  -0.0013482300   -0.0001439900    0.0007628600
   0.0686011700   -0.2139734300   -0.0847334500
  -0.0012399000    0.0008314700    0.0020129300
  -0.0012426500    0.0008233500    0.0020036500
  -0.0012780000    0.0008273800    0.0019995600
  -0.0012620600    0.0008266300    0.0019950700
  -0.0012584000    0.0008293200    0.0020058500
  -0.0012534600    0.0008337000    0.0020207200
  -0.0012591900    0.0008290600    0.0020061100
  -0.0767663600   -0.2225405900    0.0952928000
  -0.0011141500   -0.0002095200    0.0013338200
  -0.0011109400   -0.0002181500    0.0013426000
  -0.0010754300   -0.0002138800    0.0013475100
  -0.0010918400   -0.0002151500    0.0013513700
  -0.0010951200   -0.0002121700    0.0013406200
  -0.0011004000   -0.0002073000    0.0013257300
  -0.0010946700   -0.0002125300    0.0013405900
  -0.0260701400    0.0052554800   -0.0063117000
  -0.0005156100    0.0001339200    0.0009381400
  -0.0004537300    0.0002347900    0.0009024900
  -0.0006311500   -0.0000332000    0.0009586800
  -0.0005834000    0.0000712600    0.0009313600
  -0.0005795300    0.0000803500    0.0009374900
  -0.0005805100    0.0000808600    0.0009419800
  -0.0005833300    0.0000706600    0.0009368300
   0.0250147500    0.0043435500    0.0079225700
  -0.0006948500   -0.0008046000    0.0007701900
  -0.0007610700   -0.0007031100    0.0008050000
  -0.0005805600   -0.0009761800    0.0007478800
  -0.0006292400   -0.0008691100    0.0007752900
  -0.0006329100   -0.0008591000    0.0007684000
  -0.0006322200   -0.0008591200    0.0007650300
  -0.0006290100   -0.0008697900    0.0007700700
  -0.0004723300   -0.0008200500    0.0015592100
  -0.0004316700   -0.0003528900    0.0015658300
  -0.0004328200   -0.0003699500    0.0015662400
  -0.0004329500   -0.0003810100    0.0015655200
  -0.0004335100   -0.0003812600    0.0015638300
  -0.0004328300   -0.0003713000    0.0015652200
  -0.0004330700   -0.0003568000    0.0015652400
  -0.0004327300   -0.0003711300    0.0015656300
  -0.0003831300    0.0000096300    0.0009686600
  -0.0007023700   -0.0000601100    0.0012398800
  -0.0007301600    0.0000081900    0.0011822900
  -0.0004103500   -0.0000663400    0.0009053000
  -0.0006935600    0.0000112700    0.0012999900
  -0.0004916200    0.0000065900    0.0009142500
  -0.0004202400    0.0000152000    0.0008397600
  -0.0006202300    0.0000067000    0.0012385000
   0.0025207100    0.0011855000   -0.0080119800
   0.0025271100    0.0020321600   -0.0082444000
   0.0024991300    0.0012136700   -0.0082781800
   0.0025122800    0.0020311400   -0.0080510600
   0.0025225900    0.0019906900   -0.0081060400
   0.0025173600    0.0019854200   -0.0081245100
   0.0025154200    0.0019910900   -0.0081854500
   0.0025206700    0.0019848200   -0.0081668700
   0.0049924500   -0.0013743100   -0.0008904700
   0.0049907800   -0.0015149800   -0.0008875400
   0.0049924400   -0.0013871700   -0.0008903200
   0.0049925400   -0.0013472900   -0.0008898500
   0.0049900500   -0.0012610800   -0.0008871900
   0.0049936500   -0.0014095600   -0.0008901700
   0.0049926400   -0.0015232200   -0.0008895700
   0.0049924600   -0.0013683300   -0.0008900800
   0.0008470600   -0.0001760200   -0.0033896400
   0.0009590900    0.0000898400   -0.0037832600
   0.0010286400   -0.0001738800   -0.0041659600
   0.0009095800    0.0000907100   -0.0037779800
   0.0009655000   -0.0000537000   -0.0039169500
   0.0009743900    0.0000953700   -0.0037741800
   0.0009091900   -0.0000522000   -0.0036466100
   0.0008938300    0.0000949600   -0.0037868300

1    
  0.0002192205163366  -0.0000005736116214   0.0099975968130440
   0.0154311100   -0.0003634400   -0.5423988800
  -0.0003497800   -0.0004614900    0.0019864700
  -0.0003783600   -0.0004616200    0.0019504200
  -0.0003586600   -0.0004613300    0.0019885100
  -0.0003730300   -0.0004616000    0.0020225400
  -0.0003346500   -0.0004613700    0.0019897500
  -0.0003748300   -0.0004612100    0.0020102400
  -0.0003550000   -0.0004612500    0.0020166200
   0.0187692100    0.0004551200    0.0913045600
  -0.0022061000    0.0004638400    0.0023467000
  -0.0021188300    0.0004631200    0.0023087900
  -0.0021932900    0.0004635700    0.0023258900
  -0.0021491700    0.0004639500    0.0024313500
  -0.0022081200    0.0004635400    0.0022598000
  -0.0021753000    0.0004637100    0.0023744800
  -0.0021888700    0.0004636800    0.0023522500
   0.0237143200    0.0005802200    0.2885319300
  -0.0013258800   -0.0001427600    0.0007423200
  -0.0013469900   -0.0001425700    0.0007501800
  -0.0013409000   -0.0001427700    0.0007516600
  -0.0013245900   -0.0001426300    0.0007557300
  -0.0013772900   -0.0001426900    0.0007659500
  -0.0013405600   -0.0001429200    0.0007613100
  -0.0013490500   -0.0001428300    0.0007642500
  -0.0365362600    0.0876755700    0.0883279800
  -0.0012441400    0.0008309700    0.0020318100
  -0.0012558300    0.0008142800    0.0020357100
  -0.0012459100    0.0008254400    0.0020248100
  -0.0012582000    0.0008103600    0.0020215000
  -0.0012601900    0.0008239700    0.0020014000
  -0.0012514900    0.0008335500    0.0020111000
  -0.0012591100    0.0008309800    0.0020034200
  -0.0368378200   -0.0878678000    0.0887436500
  -0.0010805600   -0.0002140100    0.0013669300
  -0.0010920800   -0.0001974300    0.0013710800
  -0.0010821600   -0.0002085300    0.0013599800
  -0.0010944400   -0.0001934100    0.0013566800
  -0.0010964100   -0.0002070800    0.0013364400
  -0.0010878300   -0.0002165100    0.0013458800
  -0.0010953900   -0.0002140600    0.0013384100
  -0.0121812300    0.0037611700   -0.0026282900
  -0.0005975500    0.0000447700    0.0008921100
  -0.0006562600   -0.0000413200    0.0009355700
  -0.0005877300    0.0000255100    0.0009350000
  -0.0005728600    0.0000255800    0.0008932400
  -0.0005945200    0.0000463700    0.0009476100
  -0.0005850500    0.0000880600    0.0009390900
  -0.0005780400    0.0000849100    0.0009362600
  -0.0121072600   -0.0045388500   -0.0027474300
  -0.0006474900   -0.0008334200    0.0007275400
  -0.0007066300   -0.0007460400    0.0007713300
  -0.0006373500   -0.0008139500    0.0007702600
  -0.0006228800   -0.0008142700    0.0007289300
  -0.0006440900   -0.0008348300    0.0007825800
  -0.0006345600   -0.0008765100    0.0007740700
  -0.0006276800   -0.0008733700    0.0007713200
   0.0317166300   -0.0003729400   -0.0002334300
  -0.0004463600   -0.0003719000    0.0016207200
  -0.0004133200   -0.0003719500    0.0016697000
  -0.0004187900   -0.0003719300    0.0016140500
  -0.0005366300   -0.0003723300    0.0015217800
  -0.0003668800   -0.0003715800    0.0017066800
  -0.0004699000   -0.0003717600    0.0015212400
  -0.0004351400   -0.0003719200    0.0015603600
  -0.0006111400    0.0001982200    0.0012871300
  -0.0005334900   -0.0000041700    0.0011734800
  -0.0006120700   -0.0002047700    0.0012885300
  -0.0005332200   -0.0000009400    0.0011730400
  -0.0007370900    0.0000505600    0.0007405400
  -0.0004615300    0.0002186700    0.0009519900
  -0.0007321900   -0.0000538700    0.0007383100
  -0.0004637100   -0.0002231600    0.0009532700
   0.0023818200    0.0013370800   -0.0079900900
   0.0026023400    0.0019310700   -0.0080490700
   0.0023823000    0.0026355800   -0.0079889800
   0.0026020200    0.0020439700   -0.0080480300
   0.0025294600    0.0020298700   -0.0081021000
   0.0025154100    0.0020057900   -0.0081695800
   0.0025296500    0.0019460100   -0.0081034200
   0.0025153100    0.0019696700   -0.0081698600
   0.0054046100   -0.0013935200    0.0004113400
   0.0049097500   -0.0013965600   -0.0008826100
   0.0050056700   -0.0013967400   -0.0009483400
   0.0049815300   -0.0013963500   -0.0009180500
   0.0048397900   -0.0013958400   -0.0004635800
   0.0049203800   -0.0013944600   -0.0009603100
   0.0050225500   -0.0013970100   -0.0008077500
   0.0049852200   -0.0013965300   -0.0008596500
   0.0010916000   -0.0004135400   -0.0034189400
   0.0009386900    0.0000848700   -0.0038079400
   0.0010889900    0.0005900700   -0.0034302400
   0.0009385500    0.0001045600   -0.0038080400
   0.0010504900    0.0000506500   -0.0037316200
   0.0008919200    0.0000704900   -0.0037538900
   0.0010488700    0.0001392100   -0.0037314800
   0.0008914900    0.0001190600   -0.0037539200

1    
 -0.0002192205163366   0.0000005736116214  -0.0099975968130440
  -0.0109757100   -0.0003963600    0.5684889700
  -0.0003630500   -0.0004610200    0.0020397600
  -0.0003364400   -0.0004609100    0.0020750900
  -0.0003544400   -0.0004613300    0.0020373000
  -0.0003421100   -0.0004610400    0.0020029100
  -0.0003779600   -0.0004611500    0.0020356100
  -0.0003394000   -0.0004614100    0.0020148100
  -0.0003588200   -0.0004612600    0.0020084000
  -0.0232407000    0.0004656600   -0.0874784100
  -0.0021693200    0.0004635200    0.0023521700
  -0.0022556500    0.0004643600    0.0023897200
  -0.0021830700    0.0004637200    0.0023734100
  -0.0022245200    0.0004634300    0.0022663200
  -0.0021684600    0.0004639800    0.0024346000
  -0.0022000200    0.0004636500    0.0023226900
  -0.0021860100    0.0004637600    0.0023450700
  -0.0298303900   -0.0009359700   -0.3056211900
  -0.0013697300   -0.0001428900    0.0007836500
  -0.0013488300   -0.0001430900    0.0007757100
  -0.0013547900   -0.0001429000    0.0007741900
  -0.0013712100   -0.0001430100    0.0007699800
  -0.0013180700   -0.0001429700    0.0007598400
  -0.0013551300   -0.0001427500    0.0007647200
  -0.0013466100   -0.0001428300    0.0007611500
   0.0331011100   -0.0844721600   -0.0857706900
  -0.0012726600    0.0008279200    0.0019796100
  -0.0012608900    0.0008444800    0.0019752100
  -0.0012706600    0.0008334000    0.0019867300
  -0.0012584400    0.0008482300    0.0019909000
  -0.0012561700    0.0008349700    0.0020105900
  -0.0012650100    0.0008250800    0.0020010300
  -0.0012575200    0.0008280700    0.0020087400
   0.0336912200    0.0858112800   -0.0874832200
  -0.0011088100   -0.0002110700    0.0013144800
  -0.0010972000   -0.0002275400    0.0013098300
  -0.0011069600   -0.0002165000    0.0013215400
  -0.0010947400   -0.0002313400    0.0013256900
  -0.0010925000   -0.0002180500    0.0013455200
  -0.0011011900   -0.0002083000    0.0013362200
  -0.0010938000   -0.0002111700    0.0013437500
   0.0109932500   -0.0035689400    0.0045695400
  -0.0005646800    0.0001054900    0.0009793300
  -0.0005081500    0.0001924800    0.0009360300
  -0.0005757600    0.0001278900    0.0009367700
  -0.0005920500    0.0001259500    0.0009800900
  -0.0005699100    0.0001042500    0.0009249700
  -0.0005795700    0.0000623200    0.0009334600
  -0.0005861400    0.0000661100    0.0009359300
   0.0108212500    0.0027705700    0.0043588200
  -0.0006139900   -0.0008939100    0.0008141000
  -0.0005570600   -0.0009821300    0.0007704700
  -0.0006254500   -0.0009164400    0.0007717400
  -0.0006413200   -0.0009142800    0.0008146000
  -0.0006196000   -0.0008928000    0.0007601900
  -0.0006293700   -0.0008508700    0.0007686800
  -0.0006357800   -0.0008546800    0.0007710800
  -0.0322781800   -0.0003701600    0.0035418700
  -0.0004205100   -0.0003719900    0.0015063900
  -0.0004534200   -0.0003719300    0.0014587300
  -0.0004480900   -0.0003719500    0.0015142300
  -0.0003313800   -0.0003715700    0.0016086000
  -0.0004973400   -0.0003722800    0.0014282600
  -0.0003968000   -0.0003721200    0.0016100200
  -0.0004307700   -0.0003719700    0.0015710200
  -0.0004966100   -0.0002096400    0.0008586300
  -0.0005816800   -0.0000005300    0.0009732100
  -0.0004966400    0.0002077600    0.0008593300
  -0.0005829600   -0.0000029400    0.0009742800
  -0.0003777200   -0.0000582400    0.0014065600
  -0.0006480300   -0.0002171200    0.0011997800
  -0.0003822600    0.0000529500    0.0014068500
  -0.0006443400    0.0002137100    0.0012010300
   0.0026551300    0.0026332000   -0.0083006200
   0.0024353800    0.0020467500   -0.0082418300
   0.0026547400    0.0013448300   -0.0083020300
   0.0024357100    0.0019289100   -0.0082428500
   0.0025093900    0.0019442700   -0.0081931800
   0.0025235400    0.0019696700   -0.0081246600
   0.0025091900    0.0020305600   -0.0081917800
   0.0025236100    0.0020056300   -0.0081244700
   0.0045551200   -0.0013995100   -0.0022257300
   0.0050795300   -0.0013961000   -0.0008978000
   0.0049803300   -0.0013960500   -0.0008311100
   0.0050053400   -0.0013963000   -0.0008610900
   0.0051366000   -0.0013969300   -0.0013012900
   0.0050646800   -0.0013982100   -0.0008219600
   0.0049640100   -0.0013957300   -0.0009721600
   0.0050006200   -0.0013962800   -0.0009207900
   0.0007793600    0.0006113800   -0.0041481500
   0.0009310900    0.0001048900   -0.0037522400
   0.0007819400   -0.0004090600   -0.0041366800
   0.0009312300    0.0000844500   -0.0037520900
   0.0008261400    0.0001385000   -0.0038297600
   0.0009774800    0.0001187200   -0.0038074100
   0.0008277700    0.0000504300   -0.0038299000
   0.0009778500    0.0000705100   -0.0038074300

9    
  0.0100000000000000   0.0000000000000000   0.0000000000000000
   0.1752341700   -0.0004321600    0.0178210000
  -0.0004672200   -0.0004612100    0.0019967500
  -0.0001914700   -0.0004613800    0.0020772600
  -0.0004537800   -0.0004611900    0.0020093800
  -0.0002640900   -0.0004614400    0.0020478800
  -0.0004278500   -0.0004612600    0.0019945300
  -0.0002933900   -0.0004613200    0.0020233800
  -0.0003911200   -0.0004613000    0.0020118000
  -0.4922747800    0.0004512500    0.0194238500
  -0.0021216500    0.0004638100    0.0023665300
  -0.0024133300    0.0004636000    0.0023878100
  -0.0020583300    0.0004631900    0.0023193700
  -0.0022516800    0.0004638600    0.0024431200
  -0.0020885800    0.0004638200    0.0024450800
  -0.0022588100    0.0004641100    0.0023173300
  -0.0021388500    0.0004636900    0.0023617400
   0.0122671000   -0.0001430300    0.0016559300
  -0.0013433300   -0.0001429200    0.0007654200
  -0.0013484700   -0.0001427800    0.0007622100
  -0.0013656300   -0.0001427500    0.0007785500
  -0.0013226700   -0.0001427100    0.0007673500
  -0.0014002400   -0.0001425800    0.0007780800
  -0.0013500300   -0.0001428000    0.0007639700
  -0.0013553400   -0.0001428300    0.0007663300
   0.0206496500    0.0032378800    0.0070926600
  -0.0012656100    0.0008263000    0.0020109200
  -0.0012813900    0.0008140900    0.0020000000
  -0.0012849200    0.0008188700    0.0019885200
  -0.0012654800    0.0008361900    0.0019967500
  -0.0012659900    0.0008213000    0.0019875500
  -0.0012628000    0.0008265400    0.0020001400
  -0.0012680100    0.0008225700    0.0020017300
   0.0208262000   -0.0025849400    0.0064480200
  -0.0011018000   -0.0002093300    0.0013457900
  -0.0011178000   -0.0001971700    0.0013350200
  -0.0011209200   -0.0002020100    0.0013234500
  -0.0011019400   -0.0002192400    0.0013317100
  -0.0011020900   -0.0002044700    0.0013226700