# Sigma = 0.500000
      -15.0000000000        0.0000000000
      -14.9000000000        0.0000000000
      -14.8000000000        0.0000000000
      -14.7000000000        0.0000000000
      -14.6000000000        0.0000000000
      -14.5000000000        0.0000000000
      -14.4000000000        0.0000000000
      -14.3000000000        0.0000000000
      -14.2000000000        0.0000000000
      -14.1000000000        0.0000000000
      -14.0000000000        0.0000000000
      -13.9000000000        0.0000000000
      -13.8000000000        0.0000000000
      -13.7000000000        0.0000000000
      -13.6000000000        0.0000000000
      -13.5000000000        0.0000000000
      -13.4000000000        0.0000000000
      -13.3000000000        0.0000000000
      -13.2000000000        0.0000000000
      -13.1000000000        0.0000000000
      -13.0000000000        0.0000000000
      -12.9000000000        0.0000000000
      -12.8000000000        0.0000000000
      -12.7000000000        0.0000000000
      -12.6000000000        0.0000000000
      -12.5000000000        0.0000000000
      -12.4000000000        0.0000000000
      -12.3000000000        0.0000000000
      -12.2000000000        0.0000000000
      -12.1000000000        0.0000000000
      -12.0000000000        0.0000000000
      -11.9000000000        0.0000000000
      -11.8000000000        0.0000000000
      -11.7000000000        0.0000000000
      -11.6000000000        0.0000000000
      -11.5000000000        0.0000000000
      -11.4000000000        0.0000000000
      -11.3000000000        0.0000000000
      -11.2000000000        0.0000000000
      -11.1000000000        0.0000000000
      -11.0000000000        0.0000000000
      -10.9000000000        0.0000000000
      -10.8000000000        0.0000000000
      -10.7000000000        0.0000000000
      -10.6000000000        0.0000000000
      -10.5000000000        0.0000000000
      -10.4000000000        0.0000000000
      -10.3000000000        0.0000000000
      -10.2000000000        0.0000000000
      -10.1000000000        0.0000000000
      -10.0000000000        0.0000000000
       -9.9000000000        0.0000000000
       -9.8000000000        0.0000000000
       -9.7000000000        0.0000000000
       -9.6000000000        0.0000000000
       -9.5000000000        0.0000000000
       -9.4000000000        0.0000000000
       -9.3000000000        0.0000000000
       -9.2000000000        0.0000000000
       -9.1000000000        0.0000000000
       -9.0000000000        0.0000000000
       -8.9000000000        0.0000000000
       -8.8000000000        0.0000000000
       -8.7000000000        0.0000000000
       -8.6000000000        0.0000000000
       -8.5000000000        0.0000000000
       -8.4000000000        0.0000000000
       -8.3000000000        0.0000000000
       -8.2000000000        0.0000000000
       -8.1000000000        0.0000000000
       -8.0000000000        0.0000000000
       -7.9000000000        0.0000000000
       -7.8000000000        0.0000000000
       -7.7000000000        0.0000000000
       -7.6000000000        0.0000000000
       -7.5000000000        0.0000000000
       -7.4000000000        0.0000000000
       -7.3000000000        0.0000000000
       -7.2000000000        0.0000000000
       -7.1000000000        0.0000000000
       -7.0000000000        0.0000000000
       -6.9000000000        0.0000000000
       -6.8000000000        0.0000000000
       -6.7000000000        0.0000000000
       -6.6000000000        0.0000000000
       -6.5000000000        0.0000000000
       -6.4000000000        0.0000000000
       -6.3000000000        0.0000000000
       -6.2000000000        0.0000000000
       -6.1000000000        0.0000000000
       -6.0000000000        0.0000000000
       -5.9000000000        0.0000000000
       -5.8000000000        0.0000000000
       -5.7000000000        0.0000000000
       -5.6000000000        0.0000000000
       -5.5000000000        0.0000000000
       -5.4000000000        0.0000000000
       -5.3000000000        0.0000000000
       -5.2000000000        0.0000000000
       -5.1000000000        0.0000000000
       -5.0000000000        0.0000000000
       -4.9000000000        0.0000000000
       -4.8000000000        0.0000000000
       -4.7000000000        0.0000000000
       -4.6000000000        0.0000000000
       -4.5000000000        0.0000000000
       -4.4000000000        0.0000000000
       -4.3000000000        0.0000000000
       -4.2000000000        0.0000000000
       -4.1000000000        0.0000000000
       -4.0000000000        0.0000000000
       -3.9000000000        0.0000000000
       -3.8000000000        0.0000000000
       -3.7000000000        0.0000000000
       -3.6000000000        0.0000000000
       -3.5000000000        0.0000000000
       -3.4000000000        0.0000000000
       -3.3000000000        0.0000000000
       -3.2000000000        0.0000000001
       -3.1000000000        0.0000000002
       -3.0000000000        0.0000000007
       -2.9000000000        0.0000000024
       -2.8000000000        0.0000000079
       -2.7000000000        0.0000000257
       -2.6000000000        0.0000000801
       -2.5000000000        0.0000002415
       -2.4000000000        0.0000007030
       -2.3000000000        0.0000019751
       -2.2000000000        0.0000053558
       -2.1000000000        0.0000140164
       -2.0000000000        0.0000353976
       -1.9000000000        0.0000862576
       -1.8000000000        0.0002028031
       -1.7000000000        0.0004600254
       -1.6000000000        0.0010067125
       -1.5000000000        0.0021254164
       -1.4000000000        0.0043292232
       -1.3000000000        0.0085080717
       -1.2000000000        0.0161343907
       -1.1000000000        0.0295282834
       -1.0000000000        0.0521642149
       -0.9000000000        0.0889740169
       -0.8000000000        0.1465687717
       -0.7000000000        0.2332735601
       -0.6000000000        0.3588573255
       -0.5000000000        0.5338593950
       -0.4000000000        0.7684737866
       -0.3000000000        1.0710501033
       -0.2000000000        1.4463876961
       -0.1000000000        1.8941059618
       -0.0000000000        2.4074307399
        0.1000000000        2.9727154414
        0.2000000000        3.5699075596
        0.3000000000        4.1739958678
        0.4000000000        4.7572736147
        0.5000000000        5.2920809662
        0.6000000000        5.7535908853
        0.7000000000        6.1222001677
        0.8000000000        6.3851780816
        0.9000000000        6.5373821546
        1.0000000000        6.5810333063
        1.1000000000        6.5247071506
        1.2000000000        6.3818087178
        1.3000000000        6.1688334641
        1.4000000000        5.9036785390
        1.5000000000        5.6041769042
        1.6000000000        5.2869208549
        1.7000000000        4.9663613608
        1.8000000000        4.6541423134
        1.9000000000        4.3586547907
        2.0000000000        4.0848486327
        2.1000000000        3.8343744343
        2.2000000000        3.6061124910
        2.3000000000        3.3970672130
        2.4000000000        3.2034920970
        2.5000000000        3.0220125876
        2.6000000000        2.8504840186
        2.7000000000        2.6883852170
        2.8000000000        2.5366896376
        2.9000000000        2.3973220839
        3.0000000000        2.2724328458
        3.1000000000        2.1637515914
        3.2000000000        2.0722100588
        3.3000000000        1.9978805158
        3.4000000000        1.9401306357
        3.5000000000        1.8978095727
        3.6000000000        1.8692904216
        3.7000000000        1.8522927430
        3.8000000000        1.8435483371
        3.9000000000        1.8384899327
        4.0000000000        1.8311832274
        4.1000000000        1.8146679239
        4.2000000000        1.7817425932
        4.3000000000        1.7260702904
        4.4000000000        1.6433548014
        4.5000000000        1.5322863857
        4.6000000000        1.3949982640
        4.7000000000        1.2368964624
        4.8000000000        1.0658866455
        4.9000000000        0.8911723018
        5.0000000000        0.7218951398
        5.1000000000        0.5659064473
        5.2000000000        0.4288990777
        5.3000000000        0.3140186484
        5.4000000000        0.2219473745
        5.5000000000        0.1513517039
        5.6000000000        0.0995295441
        5.7000000000        0.0630897609
        5.8000000000        0.0385343507
        5.9000000000        0.0226715515
        6.0000000000        0.0128451372
        6.1000000000        0.0070067539
        6.2000000000        0.0036789661
        6.3000000000        0.0018590359
        6.4000000000        0.0009039315
        6.5000000000        0.0004228740
        6.6000000000        0.0001903110
        6.7000000000        0.0000823855
        6.8000000000        0.0000343032
        6.9000000000        0.0000137370
        7.0000000000        0.0000052913
        7.1000000000        0.0000019633
        7.2000000000        0.0000007118
        7.3000000000        0.0000002846
        7.4000000000        0.0000002205
        7.5000000000        0.0000004481
        7.6000000000        0.0000012210
        7.7000000000        0.0000033452
        7.8000000000        0.0000088505
        7.9000000000        0.0000225131
        8.0000000000        0.0000550323
        8.1000000000        0.0001292679
        8.2000000000        0.0002917781
        8.3000000000        0.0006328544
        8.4000000000        0.0013189976
        8.5000000000        0.0026416385
        8.6000000000        0.0050838423
        8.7000000000        0.0094015660
        8.8000000000        0.0167069771
        8.9000000000        0.0285289121
        9.0000000000        0.0468125501
        9.1000000000        0.0738123843
        9.2000000000        0.1118371517
        9.3000000000        0.1628294545
        9.4000000000        0.2278084940
        9.5000000000        0.3062647367
        9.6000000000        0.3956528225
        9.7000000000        0.4911586300
        9.8000000000        0.5858946977
        9.9000000000        0.6715953261
       10.0000000000        0.7397519105
       10.1000000000        0.7829875845
       10.2000000000        0.7963683925
       10.3000000000        0.7783295410
       10.4000000000        0.7309764203
       10.5000000000        0.6596803717
       10.6000000000        0.5720764578
       10.7000000000        0.4767216555
       10.8000000000        0.3817384800
       10.9000000000        0.2937360227
       11.0000000000        0.2171894073
       11.1000000000        0.1543157208
       11.2000000000        0.1053590239
       11.3000000000        0.0691231097
       11.4000000000        0.0435777375
       11.5000000000        0.0263995111
       11.6000000000        0.0153679801
       11.7000000000        0.0085966113
       11.8000000000        0.0046209076
       11.9000000000        0.0023868034
       12.0000000000        0.0011846642
       12.1000000000        0.0005650189
       12.2000000000        0.0002589523
       12.3000000000        0.0001140421
       12.4000000000        0.0000482614
       12.5000000000        0.0000196256
       12.6000000000        0.0000076689
       12.7000000000        0.0000028796
       12.8000000000        0.0000010390
       12.9000000000        0.0000003602
       13.0000000000        0.0000001200
       13.1000000000        0.0000000384
       13.2000000000        0.0000000118
       13.3000000000        0.0000000035
       13.4000000000        0.0000000010
       13.5000000000        0.0000000003
       13.6000000000        0.0000000001
       13.7000000000        0.0000000000
       13.8000000000        0.0000000000
       13.9000000000        0.0000000000
       14.0000000000        0.0000000000
       14.1000000000        0.0000000000
       14.2000000000        0.0000000000
       14.3000000000        0.0000000000
       14.4000000000        0.0000000000
       14.5000000000        0.0000000000
       14.6000000000        0.0000000000
       14.7000000000        0.0000000000
       14.8000000000        0.0000000000
       14.9000000000        0.0000000000
       15.0000000000        0.0000000000
       15.1000000000        0.0000000000
       15.2000000000        0.0000000000
       15.3000000000        0.0000000000
       15.4000000000        0.0000000000
       15.5000000000        0.0000000000
       15.6000000000        0.0000000000
       15.7000000000        0.0000000000
       15.8000000000        0.0000000000
       15.9000000000        0.0000000000
       16.0000000000        0.0000000000
       16.1000000000        0.0000000000
       16.2000000000        0.0000000000
       16.3000000000        0.0000000000
       16.4000000000        0.0000000000
       16.5000000000        0.0000000000
       16.6000000000        0.0000000000
       16.7000000000        0.0000000000
       16.8000000000        0.0000000000
       16.9000000000        0.0000000000
       17.0000000000        0.0000000000
       17.1000000000        0.0000000000
       17.2000000000        0.0000000000
       17.3000000000        0.0000000000
       17.4000000000        0.0000000000
       17.5000000000        0.0000000000
       17.6000000000        0.0000000000
       17.7000000000        0.0000000000
       17.8000000000        0.0000000000
       17.9000000000        0.0000000000
       18.0000000000        0.0000000000
       18.1000000000        0.0000000000
       18.2000000000        0.0000000000
       18.3000000000        0.0000000000
       18.4000000000        0.0000000000
       18.5000000000        0.0000000000
       18.6000000000        0.0000000000
       18.7000000000        0.0000000000
       18.8000000000        0.0000000000
       18.9000000000        0.0000000000
       19.0000000000        0.0000000000
       19.1000000000        0.0000000000
       19.2000000000        0.0000000000
       19.3000000000        0.0000000000
       19.4000000000        0.0000000000
       19.5000000000        0.0000000000
       19.6000000000        0.0000000000
       19.7000000000        0.0000000000
       19.8000000000        0.0000000000
       19.9000000000        0.0000000000
       20.0000000000        0.0000000000
       20.1000000000        0.0000000000
       20.2000000000        0.0000000000
       20.3000000000        0.0000000000
       20.4000000000        0.0000000000
       20.5000000000        0.0000000000
       20.6000000000        0.0000000000
       20.7000000000        0.0000000000
       20.8000000000        0.0000000000
       20.9000000000        0.0000000000
       21.0000000000        0.0000000000
       21.1000000000        0.0000000000
       21.2000000000        0.0000000000
       21.3000000000        0.0000000000
       21.4000000000        0.0000000000
       21.5000000000        0.0000000000
       21.6000000000        0.0000000000
       21.7000000000        0.0000000000
       21.8000000000        0.0000000000
       21.9000000000        0.0000000000
       22.0000000000        0.0000000000
       22.1000000000        0.0000000000
       22.2000000000        0.0000000000
       22.3000000000        0.0000000000
       22.4000000000        0.0000000000
       22.5000000000        0.0000000000
       22.6000000000        0.0000000000
       22.7000000000        0.0000000000
       22.8000000000        0.0000000000
       22.9000000000        0.0000000000
       23.0000000000        0.0000000000
       23.1000000000        0.0000000000
       23.2000000000        0.0000000000
       23.3000000000        0.0000000000
       23.4000000000        0.0000000000
       23.5000000000        0.0000000001
       23.6000000000        0.0000000006
       23.7000000000        0.0000000020
       23.8000000000        0.0000000069
       23.9000000000        0.0000000227
       24.0000000000        0.0000000721
       24.1000000000        0.0000002203
       24.2000000000        0.0000006470
       24.3000000000        0.0000018257
       24.4000000000        0.0000049511
       24.5000000000        0.0000129030
       24.6000000000        0.0000323147
       24.7000000000        0.0000777756
       24.8000000000        0.0001798994
       24.9000000000        0.0003999208
       25.0000000000        0.0008544663
       25.1000000000        0.0017547554
       25.2000000000        0.0034639376
       25.3000000000        0.0065734803
       25.4000000000        0.0119934451
       25.5000000000        0.0210417497
       25.6000000000        0.0355053266
       25.7000000000        0.0576350430
       25.8000000000        0.0900322050
       25.9000000000        0.1353941522
       26.0000000000        0.1961142194
       26.1000000000        0.2737753376
       26.2000000000        0.3686260315
       26.3000000000        0.4791639847
       26.4000000000        0.6019554998
       26.5000000000        0.7317771781
       26.6000000000        0.8620846220
       26.7000000000        0.9857176434
       26.8000000000        1.0956801222
       26.9000000000        1.1858181935
       27.0000000000        1.2512727315
       27.1000000000        1.2886794503
       27.2000000000        1.2961869098
       27.3000000000        1.2734122670
       27.4000000000        1.2214333701
       27.5000000000        1.1428377302
       27.6000000000        1.0417586946
       27.7000000000        0.9237781972
       27.8000000000        0.7955940352
       27.9000000000        0.6644309395
       28.0000000000        0.5372797235
       28.1000000000        0.4201277350
       28.2000000000        0.3173617748
       28.3000000000        0.2314769315
       28.4000000000        0.1631356046
       28.5000000000        0.1115282131
       28.6000000000        0.0749232391
       28.7000000000        0.0512736193
       28.8000000000        0.0387632678
       28.9000000000        0.0362134037
       29.0000000000        0.0433040150
       29.1000000000        0.0605901213
       29.2000000000        0.0893062104
       29.3000000000        0.1309651600
       29.4000000000        0.1867820462
       29.5000000000        0.2569942721
       29.6000000000        0.3402010308
       29.7000000000        0.4328880332
       29.8000000000        0.5293117282
       29.9000000000        0.6218700501
       30.0000000000        0.7019810762
       30.1000000000        0.7613493369
       30.2000000000        0.7933662881
       30.3000000000        0.7943175829
       30.4000000000        0.7640910227
       30.5000000000        0.7061979393
       30.6000000000        0.6271020237
       30.7000000000        0.5350327406
       30.8000000000        0.4385841302
       30.9000000000        0.3454266679
       31.0000000000        0.2613901444
       31.1000000000        0.1900434687
       31.2000000000        0.1327538370
       31.3000000000        0.0890987495
       31.4000000000        0.0574548279
       31.5000000000        0.0355968721
       31.6000000000        0.0211898333
       31.7000000000        0.0121191910
       31.8000000000        0.0066596302
       31.9000000000        0.0035160657
       32.0000000000        0.0017835868
       32.1000000000        0.0008692844
       32.2000000000        0.0004070614
       32.3000000000        0.0001831422
       32.4000000000        0.0000791675
       32.5000000000        0.0000328803
       32.6000000000        0.0000131207
       32.7000000000        0.0000050304
       32.8000000000        0.0000018530
       32.9000000000        0.0000006558
       33.0000000000        0.0000002230
       33.1000000000        0.0000000729
       33.2000000000        0.0000000230
       33.3000000000        0.0000000073
       33.4000000000        0.0000000033
       33.5000000000        0.0000000051
       33.6000000000        0.0000000154
       33.7000000000        0.0000000493
       33.8000000000        0.0000001525
       33.9000000000        0.0000004537
       34.0000000000        0.0000012973
       34.1000000000        0.0000035648
       34.2000000000        0.0000094129
       34.3000000000        0.0000238850
       34.4000000000        0.0000582430
       34.5000000000        0.0001364855
       34.6000000000        0.0003073716
       34.7000000000        0.0006652558
       34.8000000000        0.0013838166
       34.9000000000        0.0027666612
       35.0000000000        0.0053168040
       35.1000000000        0.0098220342
       35.2000000000        0.0174445269
       35.3000000000        0.0297913611
       35.4000000000        0.0489307051
       35.5000000000        0.0773116754
       35.6000000000        0.1175511240
       35.7000000000        0.1720735174
       35.8000000000        0.2426311245
       35.9000000000        0.3297827125
       36.0000000000        0.4324525065
       36.1000000000        0.5477053892
       36.2000000000        0.6708423924
       36.3000000000        0.7958415952
       36.4000000000        0.9160649451
       36.5000000000        1.0250605160
       36.6000000000        1.1172539874
       36.7000000000        1.1883655949
       36.8000000000        1.2354981829
       36.9000000000        1.2569731489
       37.0000000000        1.2520841259
       37.1000000000        1.2209481497
       37.2000000000        1.1645550699
       37.3000000000        1.0849865809
       37.4000000000        0.9856606808
       37.5000000000        0.8714128667
       37.6000000000        0.7482734270
       37.7000000000        0.6229169725
       37.8000000000        0.5018908124
       37.9000000000        0.3908153838
       38.0000000000        0.2937597475
       38.1000000000        0.2129318520
       38.2000000000        0.1487201767
       38.3000000000        0.1000240635
       38.4000000000        0.0647482041
       38.5000000000        0.0403246456
       38.6000000000        0.0241547246
       38.7000000000        0.0139130464
       38.8000000000        0.0077047627
       38.9000000000        0.0041019213
       39.0000000000        0.0021001396
       39.1000000000        0.0010364370
       39.2000000000        0.0004994536
       39.3000000000        0.0002510826
       39.4000000000        0.0001682184
       39.5000000000        0.0002067930
       39.6000000000        0.0003875033
       39.7000000000        0.0008025094
       39.8000000000        0.0016433279
       39.9000000000        0.0032504804
       40.0000000000        0.0061835108
       40.1000000000        0.0113043968
       40.2000000000        0.0198576139
       40.3000000000        0.0335173933
       40.4000000000        0.0543608835
       40.5000000000        0.0847215766
       40.6000000000        0.1268885116
       40.7000000000        0.1826495119
       40.8000000000        0.2527307002
       40.9000000000        0.3362489012
       41.0000000000        0.4303465013
       41.1000000000        0.5301921530
       41.2000000000        0.6294825127
       41.3000000000        0.7214646971
       41.4000000000        0.8003374886
       41.5000000000        0.8627281191
       41.6000000000        0.9088397019
       41.7000000000        0.9428720279
       41.8000000000        0.9724550726
       41.9000000000        1.0070774370
       42.0000000000        1.0557791297
       42.1000000000        1.1246257934
       42.2000000000        1.2146095753
       42.3000000000        1.3205791702
       42.4000000000        1.4315836330
       42.5000000000        1.5326689711
       42.6000000000        1.6077836429
       42.7000000000        1.6431384875
       42.8000000000        1.6302238870
       42.9000000000        1.5677605148
       43.0000000000        1.4621309857
       43.1000000000        1.3262254303
       43.2000000000        1.1770168560
       43.3000000000        1.0324527495
       43.4000000000        0.9083452959
       43.5000000000        0.8158650472
       43.6000000000        0.7600451971
       43.7000000000        0.7394603691
       43.8000000000        0.7470183537
       43.9000000000        0.7716300552
       44.0000000000        0.8004102162
       44.1000000000        0.8210062734
       44.2000000000        0.8236546900
       44.3000000000        0.8026281574
       44.4000000000        0.7568634459
       44.5000000000        0.6897315502
       44.6000000000        0.6080908819
       44.7000000000        0.5209010150
       44.8000000000        0.4377280199
       44.9000000000        0.3674300068
       45.0000000000        0.3171960611
       45.1000000000        0.2919728777
       45.2000000000        0.2942061050
       45.3000000000        0.3237846504
       45.4000000000        0.3781098872
       45.5000000000        0.4522882713
       45.6000000000        0.5395162044
       45.7000000000        0.6317435652
       45.8000000000        0.7206448367
       45.9000000000        0.7988080754
       46.0000000000        0.8609192905
       46.1000000000        0.9046357861
       46.2000000000        0.9308580944
       46.3000000000        0.9432419103
       46.4000000000        0.9470071915
       46.5000000000        0.9473302190
       46.6000000000        0.9477612726
       46.7000000000        0.9491310795
       46.8000000000        0.9492762500
       46.9000000000        0.9436672788
       47.0000000000        0.9267454621
       47.1000000000        0.8935626050
       47.2000000000        0.8412408859
       47.3000000000        0.7698503387
       47.4000000000        0.6825020679
       47.5000000000        0.5847003913
       47.6000000000        0.4832016526
       47.7000000000        0.3847300655
       47.8000000000        0.2948836310
       47.9000000000        0.2174518094
       48.0000000000        0.1542143163
       48.1000000000        0.1051530864
       48.2000000000        0.0689252794
       48.3000000000        0.0434252966
       48.4000000000        0.0262954256
       48.5000000000        0.0153026794
       48.6000000000        0.0085583273
       48.7000000000        0.0045997454
       48.8000000000        0.0023757182
       48.9000000000        0.0011791452
       49.0000000000        0.0005624027
       49.1000000000        0.0002577703
       49.2000000000        0.0001135329
       49.3000000000        0.0000480521
       49.4000000000        0.0000195436
       49.5000000000        0.0000076383
       49.6000000000        0.0000028687
       49.7000000000        0.0000010353
       49.8000000000        0.0000003591
       49.9000000000        0.0000001197
       50.0000000000        0.0000000383
       50.1000000000        0.0000000118
       50.2000000000        0.0000000035
       50.3000000000        0.0000000010
       50.4000000000        0.0000000003
       50.5000000000        0.0000000001
       50.6000000000        0.0000000000
       50.7000000000        0.0000000000
       50.8000000000        0.0000000000
       50.9000000000        0.0000000000
       51.0000000000        0.0000000000
       51.1000000000        0.0000000000
       51.2000000000        0.0000000000
       51.3000000000        0.0000000000
       51.4000000000        0.0000000000
       51.5000000000        0.0000000000
       51.6000000000        0.0000000000
       51.7000000000        0.0000000000
       51.8000000000        0.0000000000
       51.9000000000        0.0000000000
       52.0000000000        0.0000000000
       52.1000000000        0.0000000000
       52.2000000000        0.0000000000
       52.3000000000        0.0000000000
       52.4000000000        0.0000000000
       52.5000000000        0.0000000000
       52.6000000000        0.0000000000
       52.7000000000        0.0000000000
       52.8000000000        0.0000000000
       52.9000000000        0.0000000000
       53.0000000000        0.0000000000
       53.1000000000        0.0000000000
       53.2000000000        0.0000000000
       53.3000000000        0.0000000000
       53.4000000000        0.0000000000
       53.5000000000        0.0000000000
       53.6000000000        0.0000000000
       53.7000000000        0.0000000000
       53.8000000000        0.0000000000
       53.9000000000        0.0000000000
       54.0000000000        0.0000000000
       54.1000000000        0.0000000000
       54.2000000000        0.0000000000
       54.3000000000        0.0000000000
       54.4000000000        0.0000000000
       54.5000000000        0.0000000000
       54.6000000000        0.0000000000
       54.7000000000        0.0000000000
       54.8000000000        0.0000000000
       54.9000000000        0.0000000000
       55.0000000000        0.0000000000
       55.1000000000        0.0000000000
       55.2000000000        0.0000000000
       55.3000000000        0.0000000000
       55.4000000000        0.0000000000
       55.5000000000        0.0000000000
       55.6000000000        0.0000000000
       55.7000000000        0.0000000000
       55.8000000000        0.0000000000
       55.9000000000        0.0000000000
       56.0000000000        0.0000000000
       56.1000000000        0.0000000000
       56.2000000000        0.0000000000
       56.3000000000        0.0000000000
       56.4000000000        0.0000000000
       56.5000000000        0.0000000000
       56.6000000000        0.0000000000
       56.7000000000        0.0000000000
       56.8000000000        0.0000000000
       56.9000000000        0.0000000000
       57.0000000000        0.0000000000
       57.1000000000        0.0000000000
       57.2000000000        0.0000000000
       57.3000000000        0.0000000000
       57.4000000000        0.0000000000
       57.5000000000        0.0000000000
       57.6000000000        0.0000000000
       57.7000000000        0.0000000000
       57.8000000000        0.0000000000
       57.9000000000        0.0000000000
       58.0000000000        0.0000000000