natom:   96
displacements:
- atom:    1
  direction:
    [   1.0000000000000000,  0.0000000000000000,  0.0000000000000000 ]
  displacement:
    [   0.0100000000000000,  0.0000000000000000,  0.0000000000000000 ]
- atom:    1
  direction:
    [  -1.0000000000000000,  0.0000000000000000,  0.0000000000000000 ]
  displacement:
    [  -0.0100000000000000,  0.0000000000000000,  0.0000000000000000 ]
- atom:    1
  direction:
    [   0.0000000000000000,  1.0000000000000000,  0.0000000000000000 ]
  displacement:
    [   0.0000024767397885,  0.0099999996932880,  0.0000000000000000 ]
- atom:    1
  direction:
    [   0.0000000000000000, -1.0000000000000000,  0.0000000000000000 ]
  displacement:
    [  -0.0000024767397885, -0.0099999996932880,  0.0000000000000000 ]
- atom:    1
  direction:
    [   0.0000000000000000,  0.0000000000000000,  1.0000000000000000 ]
  displacement:
    [   0.0002192205163412, -0.0000005736116556,  0.0099975968130439 ]
- atom:    1
  direction:
    [   0.0000000000000000,  0.0000000000000000, -1.0000000000000000 ]
  displacement:
    [  -0.0002192205163412,  0.0000005736116556, -0.0099975968130439 ]
- atom:    9
  direction:
    [   1.0000000000000000,  0.0000000000000000,  0.0000000000000000 ]
  displacement:
    [   0.0100000000000000,  0.0000000000000000,  0.0000000000000000 ]
- atom:    9
  direction:
    [  -1.0000000000000000,  0.0000000000000000,  0.0000000000000000 ]
  displacement:
    [  -0.0100000000000000,  0.0000000000000000,  0.0000000000000000 ]
- atom:    9
  direction:
    [   0.0000000000000000,  1.0000000000000000,  0.0000000000000000 ]
  displacement:
    [   0.0000024767397885,  0.0099999996932880,  0.0000000000000000 ]
- atom:    9
  direction:
    [   0.0000000000000000, -1.0000000000000000,  0.0000000000000000 ]
  displacement:
    [  -0.0000024767397885, -0.0099999996932880,  0.0000000000000000 ]
- atom:    9
  direction:
    [   0.0000000000000000,  0.0000000000000000,  1.0000000000000000 ]
  displacement:
    [   0.0002192205163412, -0.0000005736116556,  0.0099975968130439 ]
- atom:    9
  direction:
    [   0.0000000000000000,  0.0000000000000000, -1.0000000000000000 ]
  displacement:
    [  -0.0002192205163412,  0.0000005736116556, -0.0099975968130439 ]
- atom:   17
  direction:
    [   1.0000000000000000,  0.0000000000000000,  0.0000000000000000 ]
  displacement:
    [   0.0100000000000000,  0.0000000000000000,  0.0000000000000000 ]
- atom:   17
  direction:
    [  -1.0000000000000000,  0.0000000000000000,  0.0000000000000000 ]
  displacement:
    [  -0.0100000000000000,  0.0000000000000000,  0.0000000000000000 ]
- atom:   17
  direction:
    [   0.0000000000000000,  1.0000000000000000,  0.0000000000000000 ]
  displacement:
    [   0.0000024767397885,  0.0099999996932880,  0.0000000000000000 ]
- atom:   17
  direction:
    [   0.0000000000000000, -1.0000000000000000,  0.0000000000000000 ]
  displacement:
    [  -0.0000024767397885, -0.0099999996932880,  0.0000000000000000 ]
- atom:   17
  direction:
    [   0.0000000000000000,  0.0000000000000000,  1.0000000000000000 ]
  displacement:
    [   0.0002192205163412, -0.0000005736116556,  0.0099975968130439 ]
- atom:   17
  direction:
    [   0.0000000000000000,  0.0000000000000000, -1.0000000000000000 ]
  displacement:
    [  -0.0002192205163412,  0.0000005736116556, -0.0099975968130439 ]
- atom:   25
  direction:
    [   1.0000000000000000,  0.0000000000000000,  0.0000000000000000 ]
  displacement:
    [   0.0100000000000000,  0.0000000000000000,  0.0000000000000000 ]
- atom:   25
  direction:
    [  -1.0000000000000000,  0.0000000000000000,  0.0000000000000000 ]
  displacement:
    [  -0.0100000000000000,  0.0000000000000000,  0.0000000000000000 ]
- atom:   25
  direction:
    [   0.0000000000000000,  1.0000000000000000,  0.0000000000000000 ]
  displacement:
    [   0.0000024767397885,  0.0099999996932880,  0.0000000000000000 ]
- atom:   25
  direction:
    [   0.0000000000000000, -1.0000000000000000,  0.0000000000000000 ]
  displacement:
    [  -0.0000024767397885, -0.0099999996932880,  0.0000000000000000 ]
- atom:   25
  direction:
    [   0.0000000000000000,  0.0000000000000000,  1.0000000000000000 ]
  displacement:
    [   0.0002192205163412, -0.0000005736116556,  0.0099975968130439 ]
- atom:   25
  direction:
    [   0.0000000000000000,  0.0000000000000000, -1.0000000000000000 ]
  displacement:
    [  -0.0002192205163412,  0.0000005736116556, -0.0099975968130439 ]
- atom:   33
  direction:
    [   1.0000000000000000,  0.0000000000000000,  0.0000000000000000 ]
  displacement:
    [   0.0100000000000000,  0.0000000000000000,  0.0000000000000000 ]
- atom:   33
  direction:
    [  -1.0000000000000000,  0.0000000000000000,  0.0000000000000000 ]
  displacement:
    [  -0.0100000000000000,  0.0000000000000000,  0.0000000000000000 ]
- atom:   33
  direction:
    [   0.0000000000000000,  1.0000000000000000,  0.0000000000000000 ]
  displacement:
    [   0.0000024767397885,  0.0099999996932880,  0.0000000000000000 ]
- atom:   33
  direction:
    [   0.0000000000000000, -1.0000000000000000,  0.0000000000000000 ]
  displacement:
    [  -0.0000024767397885, -0.0099999996932880,  0.0000000000000000 ]
- atom:   33
  direction:
    [   0.0000000000000000,  0.0000000000000000,  1.0000000000000000 ]
  displacement:
    [   0.0002192205163412, -0.0000005736116556,  0.0099975968130439 ]
- atom:   33
  direction:
    [   0.0000000000000000,  0.0000000000000000, -1.0000000000000000 ]
  displacement:
    [  -0.0002192205163412,  0.0000005736116556, -0.0099975968130439 ]
- atom:   41
  direction:
    [   1.0000000000000000,  0.0000000000000000,  0.0000000000000000 ]
  displacement:
    [   0.0100000000000000,  0.0000000000000000,  0.0000000000000000 ]
- atom:   41
  direction:
    [  -1.0000000000000000,  0.0000000000000000,  0.0000000000000000 ]
  displacement:
    [  -0.0100000000000000,  0.0000000000000000,  0.0000000000000000 ]
- atom:   41
  direction:
    [   0.0000000000000000,  1.0000000000000000,  0.0000000000000000 ]
  displacement:
    [   0.0000024767397885,  0.0099999996932880,  0.0000000000000000 ]
- atom:   41
  direction:
    [   0.0000000000000000, -1.0000000000000000,  0.0000000000000000 ]
  displacement:
    [  -0.0000024767397885, -0.0099999996932880,  0.0000000000000000 ]
- atom:   41
  direction:
    [   0.0000000000000000,  0.0000000000000000,  1.0000000000000000 ]
  displacement:
    [   0.0002192205163412, -0.0000005736116556,  0.0099975968130439 ]
- atom:   41
  direction:
    [   0.0000000000000000,  0.0000000000000000, -1.0000000000000000 ]
  displacement:
    [  -0.0002192205163412,  0.0000005736116556, -0.0099975968130439 ]
- atom:   49
  direction:
    [   1.0000000000000000,  0.0000000000000000,  0.0000000000000000 ]
  displacement:
    [   0.0100000000000000,  0.0000000000000000,  0.0000000000000000 ]
- atom:   49
  direction:
    [  -1.0000000000000000,  0.0000000000000000,  0.0000000000000000 ]
  displacement:
    [  -0.0100000000000000,  0.0000000000000000,  0.0000000000000000 ]
- atom:   49
  direction:
    [   0.0000000000000000,  1.0000000000000000,  0.0000000000000000 ]
  displacement:
    [   0.0000024767397885,  0.0099999996932880,  0.0000000000000000 ]
- atom:   49
  direction:
    [   0.0000000000000000, -1.0000000000000000,  0.0000000000000000 ]
  displacement:
    [  -0.0000024767397885, -0.0099999996932880,  0.0000000000000000 ]
- atom:   49
  direction:
    [   0.0000000000000000,  0.0000000000000000,  1.0000000000000000 ]
  displacement:
    [   0.0002192205163412, -0.0000005736116556,  0.0099975968130439 ]
- atom:   49
  direction:
    [   0.0000000000000000,  0.0000000000000000, -1.0000000000000000 ]
  displacement:
    [  -0.0002192205163412,  0.0000005736116556, -0.0099975968130439 ]
- atom:   57
  direction:
    [   1.0000000000000000,  0.0000000000000000,  0.0000000000000000 ]
  displacement:
    [   0.0100000000000000,  0.0000000000000000,  0.0000000000000000 ]
- atom:   57
  direction:
    [  -1.0000000000000000,  0.0000000000000000,  0.0000000000000000 ]
  displacement:
    [  -0.0100000000000000,  0.0000000000000000,  0.0000000000000000 ]
- atom:   57
  direction:
    [   0.0000000000000000,  1.0000000000000000,  0.0000000000000000 ]
  displacement:
    [   0.0000024767397885,  0.0099999996932880,  0.0000000000000000 ]
- atom:   57
  direction:
    [   0.0000000000000000, -1.0000000000000000,  0.0000000000000000 ]
  displacement:
    [  -0.0000024767397885, -0.0099999996932880,  0.0000000000000000 ]
- atom:   57
  direction:
    [   0.0000000000000000,  0.0000000000000000,  1.0000000000000000 ]
  displacement:
    [   0.0002192205163412, -0.0000005736116556,  0.0099975968130439 ]
- atom:   57
  direction:
    [   0.0000000000000000,  0.0000000000000000, -1.0000000000000000 ]
  displacement:
    [  -0.0002192205163412,  0.0000005736116556, -0.0099975968130439 ]
- atom:   65
  direction:
    [   1.0000000000000000,  0.0000000000000000,  0.0000000000000000 ]
  displacement:
    [   0.0100000000000000,  0.0000000000000000,  0.0000000000000000 ]
- atom:   65
  direction:
    [  -1.0000000000000000,  0.0000000000000000,  0.0000000000000000 ]
  displacement:
    [  -0.0100000000000000,  0.0000000000000000,  0.0000000000000000 ]
- atom:   65
  direction:
    [   0.0000000000000000,  1.0000000000000000,  0.0000000000000000 ]
  displacement:
    [   0.0000024767397885,  0.0099999996932880,  0.0000000000000000 ]
- atom:   65
  direction:
    [   0.0000000000000000, -1.0000000000000000,  0.0000000000000000 ]
  displacement:
    [  -0.0000024767397885, -0.0099999996932880,  0.0000000000000000 ]
- atom:   65
  direction:
    [   0.0000000000000000,  0.0000000000000000,  1.0000000000000000 ]
  displacement:
    [   0.0002192205163412, -0.0000005736116556,  0.0099975968130439 ]
- atom:   65
  direction:
    [   0.0000000000000000,  0.0000000000000000, -1.0000000000000000 ]
  displacement:
    [  -0.0002192205163412,  0.0000005736116556, -0.0099975968130439 ]
- atom:   73
  direction:
    [   1.0000000000000000,  0.0000000000000000,  0.0000000000000000 ]
  displacement:
    [   0.0100000000000000,  0.0000000000000000,  0.0000000000000000 ]
- atom:   73
  direction:
    [  -1.0000000000000000,  0.0000000000000000,  0.0000000000000000 ]
  displacement:
    [  -0.0100000000000000,  0.0000000000000000,  0.0000000000000000 ]
- atom:   73
  direction:
    [   0.0000000000000000,  1.0000000000000000,  0.0000000000000000 ]
  displacement:
    [   0.0000024767397885,  0.0099999996932880,  0.0000000000000000 ]
- atom:   73
  direction:
    [   0.0000000000000000, -1.0000000000000000,  0.0000000000000000 ]
  displacement:
    [  -0.0000024767397885, -0.0099999996932880,  0.0000000000000000 ]
- atom:   73
  direction:
    [   0.0000000000000000,  0.0000000000000000,  1.0000000000000000 ]
  displacement:
    [   0.0002192205163412, -0.0000005736116556,  0.0099975968130439 ]
- atom:   73
  direction:
    [   0.0000000000000000,  0.0000000000000000, -1.0000000000000000 ]
  displacement:
    [  -0.0002192205163412,  0.0000005736116556, -0.0099975968130439 ]
- atom:   81
  direction:
    [   1.0000000000000000,  0.0000000000000000,  0.0000000000000000 ]
  displacement:
    [   0.0100000000000000,  0.0000000000000000,  0.0000000000000000 ]
- atom:   81
  direction:
    [  -1.0000000000000000,  0.0000000000000000,  0.0000000000000000 ]
  displacement:
    [  -0.0100000000000000,  0.0000000000000000,  0.0000000000000000 ]
- atom:   81
  direction:
    [   0.0000000000000000,  1.0000000000000000,  0.0000000000000000 ]
  displacement:
    [   0.0000024767397885,  0.0099999996932880,  0.0000000000000000 ]
- atom:   81
  direction:
    [   0.0000000000000000, -1.0000000000000000,  0.0000000000000000 ]
  displacement:
    [  -0.0000024767397885, -0.0099999996932880,  0.0000000000000000 ]
- atom:   81
  direction:
    [   0.0000000000000000,  0.0000000000000000,  1.0000000000000000 ]
  displacement:
    [   0.0002192205163412, -0.0000005736116556,  0.0099975968130439 ]
- atom:   81
  direction:
    [   0.0000000000000000,  0.0000000000000000, -1.0000000000000000 ]
  displacement:
    [  -0.0002192205163412,  0.0000005736116556, -0.0099975968130439 ]
- atom:   89
  direction:
    [   1.0000000000000000,  0.0000000000000000,  0.0000000000000000 ]
  displacement:
    [   0.0100000000000000,  0.0000000000000000,  0.0000000000000000 ]
- atom:   89
  direction:
    [  -1.0000000000000000,  0.0000000000000000,  0.0000000000000000 ]
  displacement:
    [  -0.0100000000000000,  0.0000000000000000,  0.0000000000000000 ]
- atom:   89
  direction:
    [   0.0000000000000000,  1.0000000000000000,  0.0000000000000000 ]
  displacement:
    [   0.0000024767397885,  0.0099999996932880,  0.0000000000000000 ]
- atom:   89
  direction:
    [   0.0000000000000000, -1.0000000000000000,  0.0000000000000000 ]
  displacement:
    [  -0.0000024767397885, -0.0099999996932880,  0.0000000000000000 ]
- atom:   89
  direction:
    [   0.0000000000000000,  0.0000000000000000,  1.0000000000000000 ]
  displacement:
    [   0.0002192205163412, -0.0000005736116556,  0.0099975968130439 ]
- atom:   89
  direction:
    [   0.0000000000000000,  0.0000000000000000, -1.0000000000000000 ]
  displacement:
    [  -0.0002192205163412,  0.0000005736116556, -0.0099975968130439 ]
lattice:
- [   12.074492454600000,   0.000000000000000,   0.000000000000000 ]
- [    0.002961991600000,  11.959235778200000,   0.000000000000000 ]
- [    0.268287669000000,  -0.000702000600000,  12.235314419200000 ]
atoms:
- symbol: C  # 1
  position: [   0.19285582000000,  0.24992857850000,  0.22323520500000 ]
- symbol: C  # 2
  position: [   0.69285582000000,  0.24992857850000,  0.22323520500000 ]
- symbol: C  # 3
  position: [   0.19285582000000,  0.74992857850000,  0.22323520500000 ]
- symbol: C  # 4
  position: [   0.69285582000000,  0.74992857850000,  0.22323520500000 ]
- symbol: C  # 5
  position: [   0.19285582000000,  0.24992857850000,  0.72323520500000 ]
- symbol: C  # 6
  position: [   0.69285582000000,  0.24992857850000,  0.72323520500000 ]
- symbol: C  # 7
  position: [   0.19285582000000,  0.74992857850000,  0.72323520500000 ]
- symbol: C  # 8
  position: [   0.69285582000000,  0.74992857850000,  0.72323520500000 ]
- symbol: N  # 9
  position: [   0.29998070000000,  0.24998420500000,  0.27926397300000 ]
- symbol: N  # 10
  position: [   0.79998070000000,  0.24998420500000,  0.27926397300000 ]
- symbol: N  # 11
  position: [   0.29998070000000,  0.74998420500000,  0.27926397300000 ]
- symbol: N  # 12
  position: [   0.79998070000000,  0.74998420500000,  0.27926397300000 ]
- symbol: N  # 13
  position: [   0.29998070000000,  0.24998420500000,  0.77926397300000 ]
- symbol: N  # 14
  position: [   0.79998070000000,  0.24998420500000,  0.77926397300000 ]
- symbol: N  # 15
  position: [   0.29998070000000,  0.74998420500000,  0.77926397300000 ]
- symbol: N  # 16
  position: [   0.79998070000000,  0.74998420500000,  0.77926397300000 ]
- symbol: H  # 17
  position: [   0.20896093550000,  0.24984774000000,  0.13449704650000 ]
- symbol: H  # 18
  position: [   0.70896093550000,  0.24984774000000,  0.13449704650000 ]
- symbol: H  # 19
  position: [   0.20896093550000,  0.74984774000000,  0.13449704650000 ]
- symbol: H  # 20
  position: [   0.70896093550000,  0.74984774000000,  0.13449704650000 ]
- symbol: H  # 21
  position: [   0.20896093550000,  0.24984774000000,  0.63449704650000 ]
- symbol: H  # 22
  position: [   0.70896093550000,  0.24984774000000,  0.63449704650000 ]
- symbol: H  # 23
  position: [   0.20896093550000,  0.74984774000000,  0.63449704650000 ]
- symbol: H  # 24
  position: [   0.70896093550000,  0.74984774000000,  0.63449704650000 ]
- symbol: H  # 25
  position: [   0.14619945000000,  0.32542270400000,  0.24702970700000 ]
- symbol: H  # 26
  position: [   0.64619945000000,  0.32542270400000,  0.24702970700000 ]
- symbol: H  # 27
  position: [   0.14619945000000,  0.82542270400000,  0.24702970700000 ]
- symbol: H  # 28
  position: [   0.64619945000000,  0.82542270400000,  0.24702970700000 ]
- symbol: H  # 29
  position: [   0.14619945000000,  0.32542270400000,  0.74702970700000 ]
- symbol: H  # 30
  position: [   0.64619945000000,  0.32542270400000,  0.74702970700000 ]
- symbol: H  # 31
  position: [   0.14619945000000,  0.82542270400000,  0.74702970700000 ]
- symbol: H  # 32
  position: [   0.64619945000000,  0.82542270400000,  0.74702970700000 ]
- symbol: H  # 33
  position: [   0.14624905600000,  0.17446881550000,  0.24715171750000 ]
- symbol: H  # 34
  position: [   0.64624905600000,  0.17446881550000,  0.24715171750000 ]
- symbol: H  # 35
  position: [   0.14624905600000,  0.67446881550000,  0.24715171750000 ]
- symbol: H  # 36
  position: [   0.64624905600000,  0.67446881550000,  0.24715171750000 ]
- symbol: H  # 37
  position: [   0.14624905600000,  0.17446881550000,  0.74715171750000 ]
- symbol: H  # 38
  position: [   0.64624905600000,  0.17446881550000,  0.74715171750000 ]
- symbol: H  # 39
  position: [   0.14624905600000,  0.67446881550000,  0.74715171750000 ]
- symbol: H  # 40
  position: [   0.64624905600000,  0.67446881550000,  0.74715171750000 ]
- symbol: H  # 41
  position: [   0.34734889850000,  0.32059955600000,  0.25879508250000 ]
- symbol: H  # 42
  position: [   0.84734889850000,  0.32059955600000,  0.25879508250000 ]
- symbol: H  # 43
  position: [   0.34734889850000,  0.82059955600000,  0.25879508250000 ]
- symbol: H  # 44
  position: [   0.84734889850000,  0.82059955600000,  0.25879508250000 ]
- symbol: H  # 45
  position: [   0.34734889850000,  0.32059955600000,  0.75879508250000 ]
- symbol: H  # 46
  position: [   0.84734889850000,  0.32059955600000,  0.75879508250000 ]
- symbol: H  # 47
  position: [   0.34734889850000,  0.82059955600000,  0.75879508250000 ]
- symbol: H  # 48
  position: [   0.84734889850000,  0.82059955600000,  0.75879508250000 ]
- symbol: H  # 49
  position: [   0.34738543650000,  0.17933693550000,  0.25889489050000 ]
- symbol: H  # 50
  position: [   0.84738543650000,  0.17933693550000,  0.25889489050000 ]
- symbol: H  # 51
  position: [   0.34738543650000,  0.67933693550000,  0.25889489050000 ]
- symbol: H  # 52
  position: [   0.84738543650000,  0.67933693550000,  0.25889489050000 ]
- symbol: H  # 53
  position: [   0.34738543650000,  0.17933693550000,  0.75889489050000 ]
- symbol: H  # 54
  position: [   0.84738543650000,  0.17933693550000,  0.75889489050000 ]
- symbol: H  # 55
  position: [   0.34738543650000,  0.67933693550000,  0.75889489050000 ]
- symbol: H  # 56
  position: [   0.84738543650000,  0.67933693550000,  0.75889489050000 ]
- symbol: H  # 57
  position: [   0.29099333300000,  0.25005555150000,  0.36389699600000 ]
- symbol: H  # 58
  position: [   0.79099333300000,  0.25005555150000,  0.36389699600000 ]
- symbol: H  # 59
  position: [   0.29099333300000,  0.75005555150000,  0.36389699600000 ]
- symbol: H  # 60
  position: [   0.79099333300000,  0.75005555150000,  0.36389699600000 ]
- symbol: H  # 61
  position: [   0.29099333300000,  0.25005555150000,  0.86389699600000 ]
- symbol: H  # 62
  position: [   0.79099333300000,  0.25005555150000,  0.86389699600000 ]
- symbol: H  # 63
  position: [   0.29099333300000,  0.75005555150000,  0.86389699600000 ]
- symbol: H  # 64
  position: [   0.79099333300000,  0.75005555150000,  0.86389699600000 ]
- symbol: Pb # 65
  position: [   0.48127695900000,  0.49999094000000,  0.48798546200000 ]
- symbol: Pb # 66
  position: [   0.98127695900000,  0.49999094000000,  0.48798546200000 ]
- symbol: Pb # 67
  position: [   0.48127695900000,  0.99999094000000,  0.48798546200000 ]
- symbol: Pb # 68
  position: [   0.98127695900000,  0.99999094000000,  0.48798546200000 ]
- symbol: Pb # 69
  position: [   0.48127695900000,  0.49999094000000,  0.98798546200000 ]
- symbol: Pb # 70
  position: [   0.98127695900000,  0.49999094000000,  0.98798546200000 ]
- symbol: Pb # 71
  position: [   0.48127695900000,  0.99999094000000,  0.98798546200000 ]
- symbol: Pb # 72
  position: [   0.98127695900000,  0.99999094000000,  0.98798546200000 ]
- symbol: I  # 73
  position: [   0.46347239600000,  0.49996000550000,  0.23738801500000 ]
- symbol: I  # 74
  position: [   0.96347239600000,  0.49996000550000,  0.23738801500000 ]
- symbol: I  # 75
  position: [   0.46347239600000,  0.99996000550000,  0.23738801500000 ]
- symbol: I  # 76
  position: [   0.96347239600000,  0.99996000550000,  0.23738801500000 ]
- symbol: I  # 77
  position: [   0.46347239600000,  0.49996000550000,  0.73738801500000 ]
- symbol: I  # 78
  position: [   0.96347239600000,  0.49996000550000,  0.73738801500000 ]
- symbol: I  # 79
  position: [   0.46347239600000,  0.99996000550000,  0.73738801500000 ]
- symbol: I  # 80
  position: [   0.96347239600000,  0.99996000550000,  0.73738801500000 ]
- symbol: I  # 81
  position: [   0.45604154450000,  0.24999409900000,  0.02013467600000 ]
- symbol: I  # 82
  position: [   0.95604154450000,  0.24999409900000,  0.02013467600000 ]
- symbol: I  # 83
  position: [   0.45604154450000,  0.74999409900000,  0.02013467600000 ]
- symbol: I  # 84
  position: [   0.95604154450000,  0.74999409900000,  0.02013467600000 ]
- symbol: I  # 85
  position: [   0.45604154450000,  0.24999409900000,  0.52013467600000 ]
- symbol: I  # 86
  position: [   0.95604154450000,  0.24999409900000,  0.52013467600000 ]
- symbol: I  # 87
  position: [   0.45604154450000,  0.74999409900000,  0.52013467600000 ]
- symbol: I  # 88
  position: [   0.95604154450000,  0.74999409900000,  0.52013467600000 ]
- symbol: I  # 89
  position: [   0.22712489950000,  0.00000211400000,  0.45529428100000 ]
- symbol: I  # 90
  position: [   0.72712489950000,  0.00000211400000,  0.45529428100000 ]
- symbol: I  # 91
  position: [   0.22712489950000,  0.50000211400000,  0.45529428100000 ]
- symbol: I  # 92
  position: [   0.72712489950000,  0.50000211400000,  0.45529428100000 ]
- symbol: I  # 93
  position: [   0.22712489950000,  0.00000211400000,  0.95529428100000 ]
- symbol: I  # 94
  position: [   0.72712489950000,  0.00000211400000,  0.95529428100000 ]
- symbol: I  # 95
  position: [   0.22712489950000,  0.50000211400000,  0.95529428100000 ]
- symbol: I  # 96
  position: [   0.72712489950000,  0.50000211400000,  0.95529428100000 ]
