96   
72   

1    
  0.0100000000000000   0.0000000000000000   0.0000000000000000
  -0.4603503700    0.0001319700    0.0463201000
  -0.0001588500    0.0000768100   -0.0023494200
  -0.0003825100    0.0000767300   -0.0024210600
  -0.0001952200    0.0000767200   -0.0023880900
  -0.0002733700    0.0000768400   -0.0023928100
  -0.0002187700    0.0000767400   -0.0023518000
  -0.0002741700    0.0000766700   -0.0023956500
  -0.0002329500    0.0000767200   -0.0023795600
   0.1695543500    0.0002279000    0.0437682600
  -0.0010688300    0.0001882800   -0.0001171600
  -0.0008713600    0.0001881900   -0.0001296200
  -0.0011813200    0.0001886100   -0.0000645000
  -0.0009309800    0.0001882400   -0.0001632000
  -0.0010881600    0.0001883300   -0.0001711800
  -0.0009187200    0.0001881100   -0.0001461700
  -0.0010318900    0.0001883900   -0.0001431700
   0.0506094600    0.0000084100   -0.0419877000
   0.0007672200    0.0000421500   -0.0024112300
   0.0007854000    0.0000420500   -0.0024001400
   0.0007886700    0.0000421600   -0.0024151700
   0.0007491300    0.0000419900   -0.0023972700
   0.0008489200    0.0000420600   -0.0024253300
   0.0007921300    0.0000422400   -0.0024046500
   0.0007944900    0.0000421100   -0.0024114400
   0.1006312500   -0.1042092000   -0.0397846300
  -0.0002151700   -0.0000278000   -0.0025734000
  -0.0002216300   -0.0000010700   -0.0025757900
  -0.0002095000   -0.0000595700   -0.0025459300
  -0.0002400700   -0.0000393400   -0.0025556700
  -0.0002359100   -0.0000278700   -0.0025319900
  -0.0002351000   -0.0000337500   -0.0025435000
  -0.0002365700   -0.0000400200   -0.0025532300
   0.1002878100    0.1039764300   -0.0399535700
  -0.0005231600   -0.0001308900   -0.0025768300
  -0.0005296900   -0.0001575200   -0.0025794900
  -0.0005176000   -0.0000991300   -0.0025493900
  -0.0005480100   -0.0001192800   -0.0025592700
  -0.0005439000   -0.0001306900   -0.0025355700
  -0.0005430700   -0.0001248500   -0.0025469300
  -0.0005445500   -0.0001186000   -0.0025567600
   0.0189744900    0.0020171800    0.0078775600
  -0.0003595300    0.0003355900   -0.0011289400
  -0.0005959900    0.0002368700   -0.0010872200
  -0.0003995100    0.0004926000   -0.0011477900
  -0.0005353300    0.0003641700   -0.0010418500
  -0.0004525100    0.0003450600   -0.0011111800
  -0.0005373500    0.0003153500   -0.0010792700
  -0.0004613800    0.0003605400   -0.0011010300
   0.0189483300   -0.0019503200    0.0078722500
  -0.0003943100   -0.0002778500   -0.0011399400
  -0.0006306400   -0.0001788900   -0.0010981500
  -0.0004342900   -0.0004351800   -0.0011587700
  -0.0005700900   -0.0003063600   -0.0010529500
  -0.0004873000   -0.0002873600   -0.0011220500
  -0.0005721800   -0.0002574400   -0.0010902100
  -0.0004962000   -0.0003027200   -0.0011119600
  -0.0041572000   -0.0000183400    0.0029000400
  -0.0013144800   -0.0000220100   -0.0015503900
  -0.0013721800   -0.0000217800   -0.0015446100
  -0.0013515700   -0.0000219800   -0.0015381800
  -0.0013917700   -0.0000218700   -0.0014700700
  -0.0013450000   -0.0000220000   -0.0015070600
  -0.0014226000   -0.0000218600   -0.0015210300
  -0.0013503100   -0.0000219300   -0.0015042400
   0.0045907700    0.0004814500   -0.0017275800
   0.0045237400   -0.0002588300   -0.0023157900
   0.0045892900   -0.0004911800   -0.0017271900
   0.0045254300    0.0002492100   -0.0023157700
   0.0044167200   -0.0000846800   -0.0023092000
   0.0047420000   -0.0001762300   -0.0017833200
   0.0044165800    0.0000748900   -0.0023094500
   0.0047414800    0.0001661700   -0.0017838100
  -0.0000253600   -0.0008231600    0.0069484900
   0.0013377600   -0.0006579100    0.0070121900
  -0.0000271800    0.0010309700    0.0069487700
   0.0013369400    0.0008605400    0.0070123400
   0.0007640900    0.0000601100    0.0068411200
   0.0007003200    0.0001183300    0.0068995600
   0.0007640800    0.0001445000    0.0068411500
   0.0007003400    0.0000863300    0.0068997700
   0.0044218900   -0.0003701000   -0.0001905900
   0.0043846300   -0.0003714600    0.0002841100
   0.0035666400   -0.0003711900   -0.0000200500
   0.0034878300   -0.0003712500   -0.0000845500
   0.0027203400   -0.0003708300   -0.0008234000
   0.0035270200   -0.0003712200   -0.0000674500
   0.0035461300   -0.0003714000   -0.0001371200
   0.0035404400   -0.0003714500   -0.0000881400
  -0.0047900400    0.0005694100    0.0088590900
  -0.0052785400    0.0000954300    0.0089960000
  -0.0047907700   -0.0003920100    0.0088572700
  -0.0052786000    0.0000833900    0.0089962600
  -0.0050612400   -0.0000235600    0.0088387300
  -0.0052051400    0.0000683300    0.0089833800
  -0.0050608300    0.0002022800    0.0088389500
  -0.0052053300    0.0001103900    0.0089831400

1    
 -0.0100000000000000   0.0000000000000000   0.0000000000000000
   0.4495927200    0.0000100200   -0.0613864500
  -0.0003567900    0.0000766600   -0.0024365400
  -0.0001316600    0.0000767100   -0.0023635700
  -0.0003186400    0.0000767100   -0.0023975200
  -0.0002401300    0.0000766600   -0.0023929200
  -0.0002983000    0.0000767600   -0.0024327400
  -0.0002401100    0.0000767700   -0.0023898600
  -0.0002819200    0.0000767100   -0.0024061100
  -0.1615944300    0.0001535100   -0.0387774100
  -0.0009191100    0.0001882900   -0.0001359300
  -0.0011199600    0.0001883400   -0.0001226400
  -0.0008081700    0.0001879300   -0.0001871000
  -0.0010589200    0.0001883500   -0.0000880200
  -0.0008962200    0.0001882400   -0.0000762900
  -0.0010709200    0.0001884000   -0.0001056600
  -0.0009566100    0.0001884500   -0.0001083200
  -0.0495973200    0.0000772700    0.0387969600
   0.0008130300    0.0000421000   -0.0024088600
   0.0007960800    0.0000422100   -0.0024202900
   0.0007925800    0.0000421000   -0.0024052400
   0.0008320500    0.0000422700   -0.0024237900
   0.0007333500    0.0000422000   -0.0023948600
   0.0007892700    0.0000420100   -0.0024159500
   0.0007867800    0.0000421400   -0.0024090400
  -0.1012525000    0.1076252600    0.0360527300
  -0.0002717000   -0.0000550400   -0.0025372000
  -0.0002636100   -0.0000805100   -0.0025348400
  -0.0002770600   -0.0000220500   -0.0025646100
  -0.0002455300   -0.0000421900   -0.0025551200
  -0.0002501700   -0.0000540400   -0.0025785500
  -0.0002506800   -0.0000481500   -0.0025670600
  -0.0002496800   -0.0000419500   -0.0025574600
  -0.1015228000   -0.1077044300    0.0362193900
  -0.0005796500   -0.0001034200   -0.0025408500
  -0.0005715000   -0.0000780800   -0.0025382000
  -0.0005849100   -0.0001364300   -0.0025682200
  -0.0005535300   -0.0001163400   -0.0025585800
  -0.0005581400   -0.0001045700   -0.0025820400
  -0.0005586700   -0.0001104300   -0.0025707000
  -0.0005576600   -0.0001166000   -0.0025610000
  -0.0193422600   -0.0011647000   -0.0098121000
  -0.0006024500    0.0003436400   -0.0010724800
  -0.0003632300    0.0004427500   -0.0011169500
  -0.0005609600    0.0001857000   -0.0010561300
  -0.0004244800    0.0003134700   -0.0011625000
  -0.0005071900    0.0003348100   -0.0010946600
  -0.0004223100    0.0003629800   -0.0011248000
  -0.0004988000    0.0003172100   -0.0011028800
  -0.0193855400    0.0012137300   -0.0098283900
  -0.0006372400   -0.0002857800   -0.0010833700
  -0.0003981700   -0.0003851200   -0.0011278900
  -0.0005957800   -0.0001275200   -0.0010670200
  -0.0004593000   -0.0002556700   -0.0011732800
  -0.0005419800   -0.0002769100   -0.0011056700
  -0.0004570700   -0.0003053000   -0.0011357400
  -0.0005335800   -0.0002594000   -0.0011138200
   0.0013711100   -0.0000254700   -0.0058426700
  -0.0014253300   -0.0000218800   -0.0015020100
  -0.0013681800   -0.0000221000   -0.0015086200
  -0.0013888200   -0.0000219200   -0.0015144600
  -0.0013475600   -0.0000220300   -0.0015822600
  -0.0014025500   -0.0000218900   -0.0015513800
  -0.0013172100   -0.0000220500   -0.0015320500
  -0.0013900300   -0.0000219400   -0.0015493200
   0.0044297200   -0.0004959900   -0.0023529500
   0.0045060600    0.0002469900   -0.0017617100
   0.0044312100    0.0004865000   -0.0023532800
   0.0045044100   -0.0002566100   -0.0017617000
   0.0046045300    0.0000732000   -0.0017636100
   0.0042872100    0.0001835800   -0.0022952100
   0.0046048200   -0.0000826500   -0.0017633800
   0.0042876800   -0.0001927500   -0.0022946600
   0.0014603000    0.0010163000    0.0068984700
   0.0001124700    0.0008595200    0.0068340900
   0.0014620400   -0.0008149100    0.0068982100
   0.0001133200   -0.0006530100    0.0068339400
   0.0006836400    0.0001446800    0.0070086500
   0.0007467600    0.0000849900    0.0069514200
   0.0006836600    0.0000597800    0.0070086600
   0.0007467800    0.0001195000    0.0069512300
   0.0026284400   -0.0003724300    0.0000144500
   0.0026868800   -0.0003710800   -0.0004265800
   0.0034805000   -0.0003713900   -0.0001578300
   0.0035591600   -0.0003713400   -0.0000924900
   0.0043170500   -0.0003717200    0.0006388400
   0.0035201600   -0.0003713100   -0.0001119700
   0.0035005600   -0.0003711800   -0.0000393500
   0.0035062600   -0.0003711400   -0.0000887600
  -0.0054905600   -0.0003775500    0.0091045000
  -0.0049990200    0.0000830000    0.0089767800
  -0.0054898400    0.0005575900    0.0091063600
  -0.0049989600    0.0000955900    0.0089765400
  -0.0052218900    0.0002053400    0.0091361600
  -0.0050705800    0.0001121600    0.0089899600
  -0.0052223400   -0.0000266100    0.0091359300
  -0.0050703900    0.0000665000    0.0089901800

1    
  0.0000024767397885   0.0099999996932880   0.0000000000000000
   0.0082316500   -0.5550743800   -0.0078576800
  -0.0002583400    0.0001115000   -0.0023930500
  -0.0002598000    0.0001295400   -0.0023941000
  -0.0002585700    0.0000403700   -0.0023936200
  -0.0002594800    0.0000851100   -0.0023940800
  -0.0002587500    0.0000769500   -0.0023939400
  -0.0002595800    0.0000666800   -0.0023937000
  -0.0002591500    0.0000765800   -0.0023936100
  -0.0014701300    0.0858261200    0.0000759700
  -0.0009897900    0.0001973700   -0.0001251700
  -0.0009889500    0.0002720200   -0.0001246100
  -0.0009920000   -0.0000329700   -0.0001239300
  -0.0009892200    0.0001626700   -0.0001240100
  -0.0009911200    0.0001841500   -0.0001253100
  -0.0009895000    0.0002371400   -0.0001246400
  -0.0009903800    0.0001940100   -0.0001247100
   0.0003115000    0.0419003600   -0.0010087600
   0.0007900900    0.0000368200   -0.0024086600
   0.0007897600    0.0000204600   -0.0024085300
   0.0007897500    0.0000489900   -0.0024086000
   0.0007896200    0.0000257800   -0.0024086000
   0.0007898500    0.0000419400   -0.0024084700
   0.0007898100    0.0000603600   -0.0024085000
   0.0007898200    0.0000419100   -0.0024084200
  -0.1000510200    0.2211668300    0.0614890300
  -0.0002742300   -0.0000368600   -0.0025597500
  -0.0002579700   -0.0000312800   -0.0025536600
  -0.0002004100   -0.0000499100   -0.0025431200
  -0.0002387300   -0.0000407200   -0.0025441200
  -0.0002424600   -0.0000416800   -0.0025559600
  -0.0002522800   -0.0000461400   -0.0025751900
  -0.0002417800   -0.0000441200   -0.0025558000
   0.0915411200    0.2123325700   -0.0626840400
  -0.0005192100   -0.0001093900   -0.0025557500
  -0.0005357500   -0.0001048600   -0.0025621200
  -0.0005922100   -0.0001227200   -0.0025722900
  -0.0005549700   -0.0001134000   -0.0025714500
  -0.0005508000   -0.0001145900   -0.0025597700
  -0.0005414800   -0.0001194600   -0.0025404600
  -0.0005514100   -0.0001172900   -0.0025599200
   0.0215159700   -0.0048036200    0.0135299300
  -0.0005837700    0.0002740600   -0.0010930700
  -0.0005977000    0.0002353200   -0.0010672400
  -0.0003564500    0.0005097000   -0.0011466900
  -0.0004780000    0.0003551200   -0.0010901800
  -0.0004771500    0.0003449100   -0.0011034400
  -0.0004742100    0.0003241500   -0.0011270900
  -0.0004794500    0.0003387700   -0.0011035600
  -0.0223702900   -0.0054740200   -0.0158050500
  -0.0004047900   -0.0003475600   -0.0011239300
  -0.0003965400   -0.0003882600   -0.0011495200
  -0.0006340500   -0.0001187600   -0.0010713800
  -0.0005149200   -0.0002694700   -0.0011268200
  -0.0005151500   -0.0002786800   -0.0011138200
  -0.0005182300   -0.0003016700   -0.0010896900
  -0.0005124900   -0.0002872600   -0.0011134700
  -0.0013102200    0.0004206400   -0.0015119500
  -0.0013702600   -0.0000203900   -0.0015232100
  -0.0013710100    0.0000130000   -0.0015231300
  -0.0013709000   -0.0000245100   -0.0015230800
  -0.0013717000    0.0000329500   -0.0015231000
  -0.0013693900   -0.0000112800   -0.0015216700
  -0.0013713300   -0.0001036500   -0.0015230700
  -0.0013708600   -0.0000276800   -0.0015229600
   0.0045814500   -0.0000642300   -0.0022541900
   0.0043126600    0.0001587900   -0.0017030700
   0.0044447700   -0.0000606300   -0.0018177800
   0.0047048100    0.0001697200   -0.0023792000
   0.0043580600    0.0000072900   -0.0018329200
   0.0046526900    0.0000324400   -0.0022866300
   0.0046647500    0.0000078400   -0.0022513700
   0.0043682600    0.0000409800   -0.0017881000
   0.0008421000    0.0008129900    0.0067012600
  -0.0000207200    0.0006047500    0.0069276300
   0.0005858200    0.0008391900    0.0071494600
   0.0014710200    0.0006064000    0.0069207400
   0.0007217900    0.0000913900    0.0068926800
   0.0007177700    0.0001047700    0.0069050100
   0.0007246300    0.0000908400    0.0069554000
   0.0007292900    0.0001034000    0.0069433600
   0.0035182600   -0.0005702900   -0.0000861700
   0.0035189500   -0.0004012000   -0.0000930100
   0.0035218600   -0.0002550600   -0.0000877200
   0.0035216000   -0.0003757900   -0.0000886200
   0.0035238500   -0.0005050900   -0.0000871900
   0.0035200900   -0.0003332300   -0.0000859300
   0.0035213300   -0.0003305500   -0.0000890200
   0.0035219800   -0.0004176400   -0.0000886700
  -0.0051739400    0.0004469700    0.0085126700
  -0.0051384400    0.0000892600    0.0089681700
  -0.0051033900    0.0004347500    0.0094437700
  -0.0051428300    0.0000905700    0.0090027800
  -0.0051232200    0.0004390900    0.0092808200
  -0.0051624500    0.0000879500    0.0089940000
  -0.0051534900    0.0004373300    0.0086939600
  -0.0051198800    0.0000887300    0.0089781300

1    
 -0.0000024767397885  -0.0099999996932880   0.0000000000000000
   0.0083352500    0.5552124000   -0.0079440400
  -0.0002580300    0.0000420200   -0.0023933300
  -0.0002592600    0.0000239000   -0.0023943600
  -0.0002580000    0.0001131200   -0.0023941800
  -0.0002590000    0.0000684400   -0.0023942800
  -0.0002581500    0.0000765900   -0.0023943000
  -0.0002587900    0.0000867700   -0.0023939800
  -0.0002585100    0.0000768400   -0.0023939600
  -0.0016301500   -0.0854486000    0.0000117100
  -0.0009967000    0.0001792400   -0.0001286900
  -0.0009962000    0.0001045300   -0.0001280400
  -0.0009992200    0.0004094800   -0.0001273900
  -0.0009965100    0.0002139100   -0.0001276200
  -0.0009982600    0.0001924300   -0.0001288500
  -0.0009965200    0.0001394300   -0.0001280700
  -0.0009974600    0.0001828100   -0.0001281000
   0.0003750200   -0.0418110800   -0.0013928200
   0.0007891100    0.0000474800   -0.0024040600
   0.0007886500    0.0000638200   -0.0024039400
   0.0007887100    0.0000353000   -0.0024039700
   0.0007887200    0.0000585200   -0.0024039100
   0.0007886000    0.0000423600   -0.0024039700
   0.0007887100    0.0000239100   -0.0024039700
   0.0007887300    0.0000423600   -0.0024038700
   0.0918675600   -0.2125904000   -0.0624087500
  -0.0002091100   -0.0000530200   -0.0025538800
  -0.0002255100   -0.0000574700   -0.0025602800
  -0.0002821100   -0.0000394900   -0.0025703700
  -0.0002447200   -0.0000488000   -0.0025695700
  -0.0002406700   -0.0000476200   -0.0025579600
  -0.0002312800   -0.0000428700   -0.0025385600
  -0.0002412800   -0.0000450300   -0.0025580500
  -0.1003352000   -0.2212181700    0.0617755400
  -0.0005800900   -0.0001178200   -0.0025649700
  -0.0005636900   -0.0001235100   -0.0025589000
  -0.0005062700   -0.0001049200   -0.0025482900
  -0.0005444600   -0.0001141800   -0.0025493100
  -0.0005483100   -0.0001132200   -0.0025612400
  -0.0005580400   -0.0001086900   -0.0025803700
  -0.0005476100   -0.0001107300   -0.0025610000
  -0.0223366200    0.0055041400   -0.0157998400
  -0.0003681300    0.0004084800   -0.0011141200
  -0.0003595800    0.0004494400   -0.0011396900
  -0.0005973300    0.0001795900   -0.0010615900
  -0.0004780500    0.0003306400   -0.0011171300
  -0.0004783900    0.0003397700   -0.0011038200
  -0.0004815200    0.0003625800   -0.0010798600
  -0.0004757300    0.0003482400   -0.0011036600
   0.0214789200    0.0048889300    0.0135127900
  -0.0006166700   -0.0002193300   -0.0011051400
  -0.0006303200   -0.0001808700   -0.0010792700
  -0.0003893400   -0.0004548800   -0.0011587400
  -0.0005107200   -0.0003006200   -0.0011023500
  -0.0005099600   -0.0002903700   -0.0011153000
  -0.0005070900   -0.0002694300   -0.0011391200
  -0.0005123000   -0.0002840700   -0.0011156100
  -0.0013585900   -0.0004646800   -0.0015267100
  -0.0013712100   -0.0000234800   -0.0015188100
  -0.0013717100   -0.0000568600   -0.0015186200
  -0.0013717400   -0.0000193600   -0.0015185600
  -0.0013722400   -0.0000768200   -0.0015197000
  -0.0013699400   -0.0000325900   -0.0015173700
  -0.0013721900    0.0000597900   -0.0015186900
  -0.0013716400   -0.0000161900   -0.0015186200
   0.0044446700    0.0000502000   -0.0018181900
   0.0047056400   -0.0001780100   -0.0023782600
   0.0045813700    0.0000555200   -0.0022546000
   0.0043134800   -0.0001696400   -0.0017021700
   0.0046643100   -0.0000160300   -0.0022507600
   0.0043692300   -0.0000504000   -0.0017885500
   0.0043576800   -0.0000182600   -0.0018323200
   0.0046537500   -0.0000422000   -0.0022872100
   0.0005851900   -0.0006338500    0.0071488700
   0.0014738000   -0.0004049400    0.0069204400
   0.0008413800   -0.0006090600    0.0067007200
  -0.0000179600   -0.0003970900    0.0069273300
   0.0007245600    0.0001135700    0.0069556100
   0.0007290000    0.0001011800    0.0069433500
   0.0007217000    0.0001133300    0.0068929200
   0.0007175600    0.0000998800    0.0069050100
   0.0035157300   -0.0001722400   -0.0000862800
   0.0035192400   -0.0003413200   -0.0000939600
   0.0035220000   -0.0004875100   -0.0000882900
   0.0035215900   -0.0003667800   -0.0000889600
   0.0035241100   -0.0002374200   -0.0000864200
   0.0035204600   -0.0004092700   -0.0000870000
   0.0035212700   -0.0004120300   -0.0000892100
   0.0035219300   -0.0003249500   -0.0000888500
  -0.0051035800   -0.0002593200    0.0094479800
  -0.0051427800    0.0000883500    0.0090030900
  -0.0051741600   -0.0002648500    0.0085169800
  -0.0051383900    0.0000893000    0.0089685500
  -0.0051541100   -0.0002604600    0.0086919100
  -0.0051200000    0.0000901200    0.0089785500
  -0.0051238900   -0.0002585000    0.0092787800
  -0.0051626000    0.0000906400    0.0089944000

1    
  0.0002192205163412  -0.0000005736116556   0.0099975968130439
   0.0397806200    0.0001580400   -0.5163762900
  -0.0002126300    0.0000766500   -0.0024260500
  -0.0002897600    0.0000766000   -0.0024629500
  -0.0002521400    0.0000768000   -0.0024408500
  -0.0002585000    0.0000766800   -0.0023924300
  -0.0002169400    0.0000767500   -0.0024172800
  -0.0002613000    0.0000766800   -0.0023876900
  -0.0002442600    0.0000767000   -0.0023813200
   0.0438026600    0.0002046200    0.1090057700
  -0.0010462300    0.0001881600   -0.0001000000
  -0.0008872900    0.0001880700   -0.0001385200
  -0.0010030000    0.0001887900   -0.0001300500
  -0.0009126400    0.0001883900   -0.0000530200
  -0.0010396800    0.0001882800   -0.0001822700
  -0.0009446500    0.0001880400   -0.0001386800
  -0.0010092000    0.0001883600   -0.0001343200
  -0.0492620800    0.0002344500    0.2768347400
   0.0007998000    0.0000422200   -0.0024231100
   0.0007820300    0.0000421700   -0.0024184200
   0.0007889600    0.0000421400   -0.0024164000
   0.0007929000    0.0000421600   -0.0024065700
   0.0007683400    0.0000421800   -0.0024022000
   0.0007946900    0.0000421600   -0.0024051600
   0.0007903700    0.0000421100   -0.0024073300
  -0.0294960200    0.0545562600    0.0579514000
  -0.0001998200   -0.0000363700   -0.0025444800
  -0.0002423700   -0.0000506000   -0.0025437300
  -0.0002012600   -0.0000636700   -0.0025317500
  -0.0002399500   -0.0000630100   -0.0025395500
  -0.0002441200   -0.0000517400   -0.0025650300
  -0.0002342700   -0.0000378500   -0.0025446300
  -0.0002414400   -0.0000400400   -0.0025566000
  -0.0299707200   -0.0550127600    0.0581448200
  -0.0005079400   -0.0001223000   -0.0025478700
  -0.0005504600   -0.0001080600   -0.0025472100
  -0.0005091600   -0.0000949900   -0.0025351500
  -0.0005479000   -0.0000955900   -0.0025430200
  -0.0005521400   -0.0001069200   -0.0025685300
  -0.0005422900   -0.0001207600   -0.0025481900
  -0.0005494100   -0.0001185800   -0.0025601400
  -0.0044081800    0.0049375900   -0.0057765000
  -0.0004823100    0.0003087000   -0.0011269300
  -0.0005899000    0.0002242200   -0.0010832100
  -0.0004875600    0.0002887600   -0.0011220500
  -0.0005197600    0.0002885700   -0.0011079900
  -0.0004836800    0.0002894200   -0.0010965500
  -0.0005096200    0.0003447600   -0.0010891300
  -0.0004660500    0.0003600900   -0.0011005800
  -0.0044037300   -0.0048798600   -0.0057575000
  -0.0005174900   -0.0002505500   -0.0011376400
  -0.0006249600   -0.0001660800   -0.0010939400
  -0.0005217100   -0.0002320300   -0.0011332000
  -0.0005546000   -0.0002308800   -0.0011188600
  -0.0005184700   -0.0002316500   -0.0011073900
  -0.0005444000   -0.0002868600   -0.0011002300
  -0.0005008600   -0.0003022800   -0.0011115200
   0.0305248800   -0.0000109000    0.0092357400
  -0.0013367000   -0.0000220200   -0.0014819600
  -0.0013616400   -0.0000219000   -0.0014731200
  -0.0013566500   -0.0000219500   -0.0014778000
  -0.0015384800   -0.0000222800   -0.0013644400
  -0.0012623300   -0.0000220800   -0.0013947600
  -0.0014328800   -0.0000216100   -0.0015296900
  -0.0013646000   -0.0000219500   -0.0015160000
   0.0045205100   -0.0001089900   -0.0016012300
   0.0045051100   -0.0002200200   -0.0019939500
   0.0045200500    0.0000991500   -0.0016014600
   0.0045053100    0.0002099800   -0.0019924600
   0.0043634300   -0.0001133200   -0.0024112700
   0.0046976700   -0.0003528600   -0.0021520200
   0.0043620000    0.0001039600   -0.0024106700
   0.0046994100    0.0003436300   -0.0021528000
   0.0002054000   -0.0008898100    0.0070846500
   0.0009074400   -0.0000363400    0.0068023900
   0.0002058800    0.0010941800    0.0070848100
   0.0009093000    0.0002430400    0.0068029900
   0.0007431200    0.0001298900    0.0069240500
   0.0007182400    0.0001389000    0.0069247600
   0.0007430200    0.0000746500    0.0069240000
   0.0007182100    0.0000657400    0.0069248000
   0.0026198700   -0.0003713500    0.0007566700
   0.0035829900   -0.0003710400   -0.0000934600
   0.0035635600   -0.0003713400    0.0000365600
   0.0034818600   -0.0003711800   -0.0000640800
   0.0043702900   -0.0003716600    0.0007536300
   0.0033818600   -0.0003712800    0.0000791400
   0.0035431600   -0.0003715000   -0.0001426100
   0.0035164300   -0.0003713400   -0.0001187600
  -0.0048024400   -0.0000416300    0.0092311700
  -0.0051435400    0.0000630500    0.0089318400
  -0.0048039100    0.0002161500    0.0092271300
  -0.0051435200    0.0001156800    0.0089318800
  -0.0051120200    0.0000864500    0.0090760700
  -0.0052179800    0.0000425500    0.0090038600
  -0.0051116000    0.0000929000    0.0090759200
  -0.0052182500    0.0001363600    0.0090037600

1    
 -0.0002192205163412   0.0000005736116556  -0.0099975968130439
  -0.0481346000    0.0000330800    0.5324191500
  -0.0003034600    0.0000768200   -0.0023598300
  -0.0002264200    0.0000768300   -0.0023230200
  -0.0002637800    0.0000766100   -0.0023457500
  -0.0002570500    0.0000768000   -0.0023932600
  -0.0002989300    0.0000767500   -0.0023682400
  -0.0002542500    0.0000767500   -0.0023982500
  -0.0002714800    0.0000767200   -0.0024046900
  -0.0429627200    0.0001714500   -0.1086694700
  -0.0009391900    0.0001884100   -0.0001511500
  -0.0010993400    0.0001884300   -0.0001121200
  -0.0009828200    0.0001877100   -0.0001209200
  -0.0010727600    0.0001881700   -0.0001964800
  -0.0009463000    0.0001882700   -0.0000696300
  -0.0010406900    0.0001884800   -0.0001131300
  -0.0009769500    0.0001884500   -0.0001168600
   0.0545446300   -0.0001692900   -0.2999432600
   0.0007810600    0.0000420300   -0.0023956700
   0.0007985600    0.0000420800   -0.0024008000
   0.0007916200    0.0000421100   -0.0024025600
   0.0007878000    0.0000420900   -0.0024121800
   0.0008120800    0.0000420700   -0.0024166800
   0.0007859900    0.0000420900   -0.0024137100
   0.0007901800    0.0000421300   -0.0024114900
   0.0294643100   -0.0549971600   -0.0648453200
  -0.0002862700   -0.0000473800   -0.0025667400
  -0.0002431200   -0.0000324200   -0.0025677200
  -0.0002845700   -0.0000196500   -0.0025794400
  -0.0002455300   -0.0000205900   -0.0025713900
  -0.0002415400   -0.0000315100   -0.0025464500
  -0.0002511700   -0.0000455500   -0.0025662800
  -0.0002443300   -0.0000435000   -0.0025546400
   0.0293141200    0.0551194800   -0.0650469700
  -0.0005941200   -0.0001111300   -0.0025704200
  -0.0005510000   -0.0001261200   -0.0025713000
  -0.0005926300   -0.0001388900   -0.0025831000
  -0.0005535400   -0.0001379900   -0.0025749900
  -0.0005495100   -0.0001270200   -0.0025500300
  -0.0005591100   -0.0001130500   -0.0025697900
  -0.0005523300   -0.0001150800   -0.0025581800
   0.0033988600   -0.0042159000    0.0035688200
  -0.0004766400    0.0003705100   -0.0010776700
  -0.0003687200    0.0004565700   -0.0011218000
  -0.0004715800    0.0003905200   -0.0010823700
  -0.0004398000    0.0003912200   -0.0010966500
  -0.0004750000    0.0003911600   -0.0011079500
  -0.0004499000    0.0003352300   -0.0011150500
  -0.0004927700    0.0003201600   -0.0011039600
   0.0033255100    0.0042739300    0.0035282200
  -0.0005110200   -0.0003130900   -0.0010888400
  -0.0004032500   -0.0003991300   -0.0011329400
  -0.0005070500   -0.0003316200   -0.0010930800
  -0.0004745400   -0.0003333300   -0.0011076500
  -0.0005097900   -0.0003333600   -0.0011189800
  -0.0004847100   -0.0002775400   -0.0011258200
  -0.0005275600   -0.0002623600   -0.0011148800
  -0.0327451000   -0.0000324500   -0.0118794200
  -0.0014043300   -0.0000218900   -0.0015688000
  -0.0013788300   -0.0000220000   -0.0015774700
  -0.0013841000   -0.0000219600   -0.0015720200
  -0.0012056500   -0.0000216300   -0.0016832800
  -0.0014784600   -0.0000218300   -0.0016547900
  -0.0013087000   -0.0000222900   -0.0015200600
  -0.0013761200   -0.0000219600   -0.0015340400
   0.0045039100    0.0000984100   -0.0024772500
   0.0045171300    0.0002104100   -0.0020822100
   0.0045043000   -0.0001078400   -0.0024769900
   0.0045169000   -0.0002196600   -0.0020836800
   0.0046549100    0.0001077700   -0.0016643600
   0.0043340600    0.0003412200   -0.0019245500
   0.0046562900   -0.0001176500   -0.0016649900
   0.0043323000   -0.0003512300   -0.0019237700
   0.0012366900    0.0010869700    0.0067650400
   0.0005508100    0.0002292200    0.0070492500
   0.0012361500   -0.0008822500    0.0067648900
   0.0005489100   -0.0000269100    0.0070486500
   0.0007045300    0.0000742000    0.0069243500
   0.0007284200    0.0000654600    0.0069230000
   0.0007046100    0.0001302700    0.0069244200
   0.0007285000    0.0001390600    0.0069229500
   0.0043998600   -0.0003712000   -0.0009057200
   0.0034755000   -0.0003715100   -0.0000741700
   0.0034826700   -0.0003712600   -0.0002138100
   0.0035627100   -0.0003714100   -0.0001122100
   0.0026650800   -0.0003708900   -0.0009376600
   0.0036660500   -0.0003712600   -0.0002588300
   0.0035015800   -0.0003710900   -0.0000346700
   0.0035291000   -0.0003712700   -0.0000587900
  -0.0054766300    0.0002258100    0.0087394300
  -0.0051356700    0.0001156600    0.0090410500
  -0.0054752000   -0.0000429300    0.0087435000
  -0.0051356900    0.0000630100    0.0090410500
  -0.0051681200    0.0000903100    0.0088956900
  -0.0050614500    0.0001370600    0.0089688500
  -0.0051685700    0.0000877300    0.0088958900
  -0.0050611700    0.0000413900    0.0089689100

9    
  0.0100000000000000   0.0000000000000000   0.0000000000000000
   0.1604414300    0.0001096800    0.0347861000
  -0.0003361000    0.0000766600   -0.0024485800
  -0.0001356800    0.0000767800   -0.0022932700
  -0.0004458700    0.0000767900   -0.0024031600
  -0.0001962200    0.0000768100   -0.0023185400
  -0.0003567700    0.0000767800   -0.0024409000
  -0.0001844900    0.0000766800   -0.0023504200
  -0.0002980500    0.0000765600   -0.0024118300
  -0.5117391100    0.0001933700    0.0434037000
  -0.0009018000    0.0001882800   -0.0001193800
  -0.0013264800    0.0001883100   -0.0000643200
  -0.0006343400    0.0001878400   -0.0001978700
  -0.0010852200    0.0001883700   -0.0001205500
  -0.0007855700    0.0001882200    0.0000113000
  -0.0011265300    0.0001883600   -0.0001652000
  -0.0009201900    0.0001882500   -0.0001181900
   0.0016853400    0.0000430400   -0.0014645300
   0.0007635400    0.0000420800   -0.0024033800
   0.0007987000    0.0000421500   -0.0024113400
   0.0007982800    0.0000420500   -0.0023954900
   0.0008320500    0.0000421300   -0.0023882500
   0.0007254300    0.0000422300   -0.0023715800
   0.0008046600    0.0000422900   -0.0024077000
   0.0007797300    0.0000421300   -0.0024063000
   0.0214588800    0.0029117500    0.0103550400
  -0.0002614200    0.0000327400   -0.0025588700
  -0.0002536800   -0.0000710900   -0.0025786500
  -0.0003090500   -0.0000306200   -0.0025921900
  -0.0002456500   -0.0000349900   -0.0025602800
  -0.0002569100   -0.0000709900   -0.0025883000
  -0.0002521800   -0.0000462400   -0.0025593700
  -0.0002567700   -0.0000444000   -0.0025553400
   0.0211520800   -0.0030406500    0.0103554700
  -0.0005693800   -0.0001912300   -0.0025624600
  -0.0005617700   -0.0000875600   -0.0025822000
  -0.0006167800   -0.0001278600   -0.0025959200
  -0.0005536400   -0.0001236100   -0.0025638300
  -0.0005648900   -0.0000876500   -0.0025917700