# Sigma = 0.500000
      -15.0000000000        0.0000000000
      -14.9000000000        0.0000000000
      -14.8000000000        0.0000000000
      -14.7000000000        0.0000000000
      -14.6000000000        0.0000000000
      -14.5000000000        0.0000000000
      -14.4000000000        0.0000000000
      -14.3000000000        0.0000000000
      -14.2000000000        0.0000000000
      -14.1000000000        0.0000000000
      -14.0000000000        0.0000000000
      -13.9000000000        0.0000000000
      -13.8000000000        0.0000000000
      -13.7000000000        0.0000000000
      -13.6000000000        0.0000000000
      -13.5000000000        0.0000000000
      -13.4000000000        0.0000000000
      -13.3000000000        0.0000000000
      -13.2000000000        0.0000000000
      -13.1000000000        0.0000000000
      -13.0000000000        0.0000000000
      -12.9000000000        0.0000000000
      -12.8000000000        0.0000000000
      -12.7000000000        0.0000000000
      -12.6000000000        0.0000000000
      -12.5000000000        0.0000000000
      -12.4000000000        0.0000000000
      -12.3000000000        0.0000000000
      -12.2000000000        0.0000000000
      -12.1000000000        0.0000000000
      -12.0000000000        0.0000000000
      -11.9000000000        0.0000000000
      -11.8000000000        0.0000000000
      -11.7000000000        0.0000000000
      -11.6000000000        0.0000000000
      -11.5000000000        0.0000000000
      -11.4000000000        0.0000000000
      -11.3000000000        0.0000000000
      -11.2000000000        0.0000000000
      -11.1000000000        0.0000000000
      -11.0000000000        0.0000000000
      -10.9000000000        0.0000000000
      -10.8000000000        0.0000000000
      -10.7000000000        0.0000000000
      -10.6000000000        0.0000000000
      -10.5000000000        0.0000000000
      -10.4000000000        0.0000000000
      -10.3000000000        0.0000000000
      -10.2000000000        0.0000000000
      -10.1000000000        0.0000000000
      -10.0000000000        0.0000000000
       -9.9000000000        0.0000000000
       -9.8000000000        0.0000000000
       -9.7000000000        0.0000000000
       -9.6000000000        0.0000000000
       -9.5000000000        0.0000000000
       -9.4000000000        0.0000000000
       -9.3000000000        0.0000000000
       -9.2000000000        0.0000000000
       -9.1000000000        0.0000000000
       -9.0000000000        0.0000000000
       -8.9000000000        0.0000000000
       -8.8000000000        0.0000000000
       -8.7000000000        0.0000000000
       -8.6000000000        0.0000000000
       -8.5000000000        0.0000000000
       -8.4000000000        0.0000000000
       -8.3000000000        0.0000000000
       -8.2000000000        0.0000000000
       -8.1000000000        0.0000000000
       -8.0000000000        0.0000000000
       -7.9000000000        0.0000000000
       -7.8000000000        0.0000000000
       -7.7000000000        0.0000000000
       -7.6000000000        0.0000000000
       -7.5000000000        0.0000000000
       -7.4000000000        0.0000000000
       -7.3000000000        0.0000000000
       -7.2000000000        0.0000000000
       -7.1000000000        0.0000000000
       -7.0000000000        0.0000000000
       -6.9000000000        0.0000000000
       -6.8000000000        0.0000000000
       -6.7000000000        0.0000000000
       -6.6000000000        0.0000000000
       -6.5000000000        0.0000000000
       -6.4000000000        0.0000000000
       -6.3000000000        0.0000000000
       -6.2000000000        0.0000000000
       -6.1000000000        0.0000000000
       -6.0000000000        0.0000000000
       -5.9000000000        0.0000000000
       -5.8000000000        0.0000000000
       -5.7000000000        0.0000000000
       -5.6000000000        0.0000000000
       -5.5000000000        0.0000000000
       -5.4000000000        0.0000000000
       -5.3000000000        0.0000000000
       -5.2000000000        0.0000000000
       -5.1000000000        0.0000000000
       -5.0000000000        0.0000000000
       -4.9000000000        0.0000000000
       -4.8000000000        0.0000000000
       -4.7000000000        0.0000000000
       -4.6000000000        0.0000000000
       -4.5000000000        0.0000000000
       -4.4000000000        0.0000000000
       -4.3000000000        0.0000000000
       -4.2000000000        0.0000000000
       -4.1000000000        0.0000000000
       -4.0000000000        0.0000000000
       -3.9000000000        0.0000000000
       -3.8000000000        0.0000000001
       -3.7000000000        0.0000000004
       -3.6000000000        0.0000000013
       -3.5000000000        0.0000000042
       -3.4000000000        0.0000000135
       -3.3000000000        0.0000000416
       -3.2000000000        0.0000001235
       -3.1000000000        0.0000003526
       -3.0000000000        0.0000009682
       -2.9000000000        0.0000025579
       -2.8000000000        0.0000065017
       -2.7000000000        0.0000159008
       -2.6000000000        0.0000374194
       -2.5000000000        0.0000847413
       -2.4000000000        0.0001846955
       -2.3000000000        0.0003874600
       -2.2000000000        0.0007824591
       -2.1000000000        0.0015213380
       -2.0000000000        0.0028483767
       -1.9000000000        0.0051365667
       -1.8000000000        0.0089242575
       -1.7000000000        0.0149433026
       -1.6000000000        0.0241263077
       -1.5000000000        0.0375800020
       -1.4000000000        0.0565162303
       -1.3000000000        0.0821430671
       -1.2000000000        0.1155352805
       -1.1000000000        0.1575217200
       -1.0000000000        0.2086398606
       -0.9000000000        0.2692061682
       -0.8000000000        0.3395289583
       -0.7000000000        0.4202482169
       -0.6000000000        0.5127335524
       -0.5000000000        0.6194240349
       -0.4000000000        0.7439718578
       -0.3000000000        0.8910700393
       -0.2000000000        1.0659048507
       -0.1000000000        1.2732630382
       -0.0000000000        1.5164171460
        0.1000000000        1.7959816830
        0.2000000000        2.1089588242
        0.3000000000        2.4481703106
        0.4000000000        2.8022129002
        0.5000000000        3.1559973469
        0.6000000000        3.4918534710
        0.7000000000        3.7911161144
        0.8000000000        4.0360489102
        0.9000000000        4.2119108959
        1.0000000000        4.3089244454
        1.1000000000        4.3238696549
        1.2000000000        4.2610258700
        1.3000000000        4.1322227946
        1.4000000000        3.9558619749
        1.5000000000        3.7549210094
        1.6000000000        3.5541378120
        1.7000000000        3.3767566179
        1.8000000000        3.2413586446
        1.9000000000        3.1593558662
        2.0000000000        3.1336640280
        2.1000000000        3.1588807226
        2.2000000000        3.2229980706
        2.3000000000        3.3103352225
        2.4000000000        3.4050692596
        2.5000000000        3.4945659719
        2.6000000000        3.5717314974
        2.7000000000        3.6358355206
        2.8000000000        3.6916438441
        2.9000000000        3.7471352138
        3.0000000000        3.8104366740
        3.1000000000        3.8867900276
        3.2000000000        3.9763154372
        3.3000000000        4.0730946343
        3.4000000000        4.1657395306
        3.5000000000        4.2392483426
        3.6000000000        4.2776727114
        3.7000000000        4.2669797583
        3.8000000000        4.1975030119
        3.9000000000        4.0655118395
        4.0000000000        3.8736472761
        4.1000000000        3.6302229022
        4.2000000000        3.3476227296
        4.3000000000        3.0401984026
        4.4000000000        2.7221402552
        4.5000000000        2.4057550518
        4.6000000000        2.1004393879
        4.7000000000        1.8124327242
        4.8000000000        1.5452282810
        4.9000000000        1.3003738551
        5.0000000000        1.0783466048
        5.1000000000        0.8792390040
        5.2000000000        0.7031157035
        5.3000000000        0.5500412821
        5.4000000000        0.4198869938
        5.5000000000        0.3120710804
        5.6000000000        0.2253702925
        5.7000000000        0.1578811093
        5.8000000000        0.1071387933
        5.9000000000        0.0703477753
        6.0000000000        0.0446519231
        6.1000000000        0.0273775670
        6.2000000000        0.0162054565
        6.3000000000        0.0092567704
        6.4000000000        0.0051022464
        6.5000000000        0.0027172091
        6.6000000000        0.0014087003
        6.7000000000        0.0007372206
        6.8000000000        0.0004488069
        6.9000000000        0.0004265712
        7.0000000000        0.0006661404
        7.1000000000        0.0012768549
        7.2000000000        0.0025091703
        7.3000000000        0.0048068152
        7.4000000000        0.0088781535
        7.5000000000        0.0157736313
        7.6000000000        0.0269452947
        7.7000000000        0.0442524821
        7.8000000000        0.0698699379
        7.9000000000        0.1060577620
        8.0000000000        0.1547735007
        8.1000000000        0.2171479067
        8.2000000000        0.2929020238
        8.3000000000        0.3798389151
        8.4000000000        0.4735757366
        8.5000000000        0.5676684177
        8.6000000000        0.6542105988
        8.7000000000        0.7248698982
        8.8000000000        0.7721899223
        8.9000000000        0.7908816996
        9.0000000000        0.7787962237
        9.1000000000        0.7373309430
        9.2000000000        0.6711639280
        9.3000000000        0.5873856048
        9.4000000000        0.4942507777
        9.5000000000        0.3998539791
        9.6000000000        0.3110182760
        9.7000000000        0.2325953619
        9.8000000000        0.1672425838
        9.9000000000        0.1156173966
       10.0000000000        0.0768474786
       10.1000000000        0.0491095097
       10.2000000000        0.0301738227
       10.3000000000        0.0178247257
       10.4000000000        0.0101237635
       10.5000000000        0.0055282337
       10.6000000000        0.0029023817
       10.7000000000        0.0014650237
       10.8000000000        0.0007109759
       10.9000000000        0.0003317288
       11.0000000000        0.0001488084
       11.1000000000        0.0000641778
       11.2000000000        0.0000266105
       11.3000000000        0.0000106079
       11.4000000000        0.0000040655
       11.5000000000        0.0000014980
       11.6000000000        0.0000005306
       11.7000000000        0.0000001807
       11.8000000000        0.0000000592
       11.9000000000        0.0000000186
       12.0000000000        0.0000000056
       12.1000000000        0.0000000016
       12.2000000000        0.0000000005
       12.3000000000        0.0000000001
       12.4000000000        0.0000000000
       12.5000000000        0.0000000000
       12.6000000000        0.0000000000
       12.7000000000        0.0000000000
       12.8000000000        0.0000000000
       12.9000000000        0.0000000000
       13.0000000000        0.0000000000
       13.1000000000        0.0000000000
       13.2000000000        0.0000000000
       13.3000000000        0.0000000000
       13.4000000000        0.0000000000
       13.5000000000        0.0000000000
       13.6000000000        0.0000000000
       13.7000000000        0.0000000000
       13.8000000000        0.0000000000
       13.9000000000        0.0000000000
       14.0000000000        0.0000000000
       14.1000000000        0.0000000000
       14.2000000000        0.0000000000
       14.3000000000        0.0000000000
       14.4000000000        0.0000000000
       14.5000000000        0.0000000000
       14.6000000000        0.0000000000
       14.7000000000        0.0000000000
       14.8000000000        0.0000000000
       14.9000000000        0.0000000000
       15.0000000000        0.0000000000
       15.1000000000        0.0000000000
       15.2000000000        0.0000000000
       15.3000000000        0.0000000000
       15.4000000000        0.0000000000
       15.5000000000        0.0000000000
       15.6000000000        0.0000000000
       15.7000000000        0.0000000000
       15.8000000000        0.0000000000
       15.9000000000        0.0000000000
       16.0000000000        0.0000000000
       16.1000000000        0.0000000000
       16.2000000000        0.0000000000
       16.3000000000        0.0000000000
       16.4000000000        0.0000000000
       16.5000000000        0.0000000000
       16.6000000000        0.0000000000
       16.7000000000        0.0000000000
       16.8000000000        0.0000000000
       16.9000000000        0.0000000000
       17.0000000000        0.0000000000
       17.1000000000        0.0000000000
       17.2000000000        0.0000000000
       17.3000000000        0.0000000000
       17.4000000000        0.0000000000
       17.5000000000        0.0000000000
       17.6000000000        0.0000000000
       17.7000000000        0.0000000000
       17.8000000000        0.0000000000
       17.9000000000        0.0000000000
       18.0000000000        0.0000000000
       18.1000000000        0.0000000000
       18.2000000000        0.0000000000
       18.3000000000        0.0000000000
       18.4000000000        0.0000000000
       18.5000000000        0.0000000000
       18.6000000000        0.0000000000
       18.7000000000        0.0000000000
       18.8000000000        0.0000000000
       18.9000000000        0.0000000000
       19.0000000000        0.0000000000
       19.1000000000        0.0000000000
       19.2000000000        0.0000000000
       19.3000000000        0.0000000000
       19.4000000000        0.0000000000
       19.5000000000        0.0000000000
       19.6000000000        0.0000000000
       19.7000000000        0.0000000000
       19.8000000000        0.0000000000
       19.9000000000        0.0000000000
       20.0000000000        0.0000000000
       20.1000000000        0.0000000000
       20.2000000000        0.0000000000
       20.3000000000        0.0000000000
       20.4000000000        0.0000000000
       20.5000000000        0.0000000000
       20.6000000000        0.0000000000
       20.7000000000        0.0000000000
       20.8000000000        0.0000000000
       20.9000000000        0.0000000000
       21.0000000000        0.0000000000
       21.1000000000        0.0000000000
       21.2000000000        0.0000000000
       21.3000000000        0.0000000000
       21.4000000000        0.0000000000
       21.5000000000        0.0000000000
       21.6000000000        0.0000000000
       21.7000000000        0.0000000000
       21.8000000000        0.0000000000
       21.9000000000        0.0000000000
       22.0000000000        0.0000000000
       22.1000000000        0.0000000000
       22.2000000000        0.0000000000
       22.3000000000        0.0000000000
       22.4000000000        0.0000000000
       22.5000000000        0.0000000000
       22.6000000000        0.0000000000
       22.7000000000        0.0000000000
       22.8000000000        0.0000000001
       22.9000000000        0.0000000005
       23.0000000000        0.0000000017
       23.1000000000        0.0000000059
       23.2000000000        0.0000000196
       23.3000000000        0.0000000624
       23.4000000000        0.0000001912
       23.5000000000        0.0000005630
       23.6000000000        0.0000015934
       23.7000000000        0.0000043339
       23.8000000000        0.0000113288
       23.9000000000        0.0000284613
       24.0000000000        0.0000687199
       24.1000000000        0.0001594678
       24.2000000000        0.0003556549
       24.3000000000        0.0007623501
       24.4000000000        0.0015705630
       24.5000000000        0.0031098441
       24.6000000000        0.0059185309
       24.7000000000        0.0108266591
       24.8000000000        0.0190370011
       24.9000000000        0.0321774532
       25.0000000000        0.0522865191
       25.1000000000        0.0816889524
       25.2000000000        0.1227280971
       25.3000000000        0.1773507254
       25.4000000000        0.2465887738
       25.5000000000        0.3300400901
       25.6000000000        0.4254967157
       25.7000000000        0.5288788672
       25.8000000000        0.6345857326
       25.9000000000        0.7362685913
       26.0000000000        0.8278918539
       26.1000000000        0.9048210912
       26.2000000000        0.9646193825
       26.3000000000        1.0072832802
       26.4000000000        1.0348076759
       26.5000000000        1.0501887414
       26.6000000000        1.0561765149
       26.7000000000        1.0541920230
       26.8000000000        1.0437801747
       26.9000000000        1.0227884527
       27.0000000000        0.9882084779
       27.1000000000        0.9373886314
       27.2000000000        0.8692067049
       27.3000000000        0.7848220148
       27.4000000000        0.6877863656
       27.5000000000        0.5835143891
       27.6000000000        0.4783113230
       27.7000000000        0.3782643730
       27.8000000000        0.2882987938
       27.9000000000        0.2116028614
       28.0000000000        0.1494868608
       28.1000000000        0.1016141057
       28.2000000000        0.0664641575
       28.3000000000        0.0418709570
       28.4000000000        0.0255095973
       28.5000000000        0.0152609196
       28.6000000000        0.0094388051
       28.7000000000        0.0069046870
       28.8000000000        0.0071111908
       28.9000000000        0.0101137171
       29.0000000000        0.0165712123
       29.1000000000        0.0277326438
       29.2000000000        0.0453812351
       29.3000000000        0.0716919958
       29.4000000000        0.1089572851
       29.5000000000        0.1591564673
       29.6000000000        0.2233907093
       29.7000000000        0.3012654698
       29.8000000000        0.3903634725
       29.9000000000        0.4859845304
       30.0000000000        0.5813110916
       30.1000000000        0.6680785280
       30.2000000000        0.7376988685
       30.3000000000        0.7826424667
       30.4000000000        0.7977749343
       30.5000000000        0.7813219929
       30.6000000000        0.7352116768
       30.7000000000        0.6647026763
       30.8000000000        0.5773978247
       30.9000000000        0.4818984661
       31.0000000000        0.3864280373
       31.1000000000        0.2977243796
       31.2000000000        0.2203904915
       31.3000000000        0.1567487162
       31.4000000000        0.1071143894
       31.5000000000        0.0703273616
       31.6000000000        0.0443642882
       31.7000000000        0.0268890461
       31.8000000000        0.0156584929
       31.9000000000        0.0087610711
       32.0000000000        0.0047097422
       32.1000000000        0.0024325947
       32.2000000000        0.0012071884
       32.3000000000        0.0005755897
       32.4000000000        0.0002636840
       32.5000000000        0.0001160612
       32.6000000000        0.0000490821
       32.7000000000        0.0000199431
       32.8000000000        0.0000077856
       32.9000000000        0.0000029203
       33.0000000000        0.0000010526
       33.1000000000        0.0000003650
       33.2000000000        0.0000001234
       33.3000000000        0.0000000462
       33.4000000000        0.0000000367
       33.5000000000        0.0000000822
       33.6000000000        0.0000002410
       33.7000000000        0.0000007041
       33.8000000000        0.0000019837
       33.9000000000        0.0000053722
       34.0000000000        0.0000139834
       34.1000000000        0.0000349824
       34.2000000000        0.0000841182
       34.3000000000        0.0001944291
       34.4000000000        0.0004320134
       34.5000000000        0.0009228649
       34.6000000000        0.0018955365
       34.7000000000        0.0037440062
       34.8000000000        0.0071124505
       34.9000000000        0.0129975218
       35.0000000000        0.0228536223
       35.1000000000        0.0386735091
       35.2000000000        0.0630035939
       35.3000000000        0.0988461369
       35.4000000000        0.1494060218
       35.5000000000        0.2176632413
       35.6000000000        0.3057939034
       35.7000000000        0.4145150299
       35.8000000000        0.5424765604
       35.9000000000        0.6858492329
       36.0000000000        0.8382446026
       36.1000000000        0.9910498780
       36.2000000000        1.1341767100
       36.3000000000        1.2571324774
       36.4000000000        1.3502508185
       36.5000000000        1.4058836874
       36.6000000000        1.4193650743
       36.7000000000        1.3895989582
       36.8000000000        1.3191870026
       36.9000000000        1.2140818852
       37.0000000000        1.0828212971
       37.1000000000        0.9354595791
       37.2000000000        0.7823614412
       37.3000000000        0.6330452331
       37.4000000000        0.4952522700
       37.5000000000        0.3743710083
       37.6000000000        0.2732691444
       37.7000000000        0.1925023409
       37.8000000000        0.1307985529
       37.9000000000        0.0856797806
       38.0000000000        0.0540844658
       38.1000000000        0.0328865958
       38.2000000000        0.0192563237
       38.3000000000        0.0108546550
       38.4000000000        0.0058893510
       38.5000000000        0.0030759890
       38.6000000000        0.0015491252
       38.7000000000        0.0007595138
       38.8000000000        0.0003807059
       38.9000000000        0.0002368776
       39.0000000000        0.0002558516
       39.1000000000        0.0004473614
       39.2000000000        0.0009056999
       39.3000000000        0.0018363677
       39.4000000000        0.0036063299
       39.5000000000        0.0068151653
       39.6000000000        0.0123783213
       39.7000000000        0.0216034544
       39.8000000000        0.0362279548
       39.9000000000        0.0583744601
       40.0000000000        0.0903783510
       40.1000000000        0.1344548024
       40.2000000000        0.1922083787
       40.3000000000        0.2640438143
       40.4000000000        0.3486004257
       40.5000000000        0.4423823167
       40.6000000000        0.5397657286
       40.7000000000        0.6335138877
       40.8000000000        0.7158172483
       40.9000000000        0.7797267128
       41.0000000000        0.8207036111
       41.1000000000        0.8379233759
       41.2000000000        0.8349764748
       41.3000000000        0.8197171862
       41.4000000000        0.8031921739
       41.5000000000        0.7977880951
       41.6000000000        0.8149185960
       41.7000000000        0.8626869486
       41.8000000000        0.9439922100
       41.9000000000        1.0554917571
       42.0000000000        1.1876984479
       42.1000000000        1.3262899629
       42.2000000000        1.4544650762
       42.3000000000        1.5559378536
       42.4000000000        1.6179743237
       42.5000000000        1.6338091362
       42.6000000000        1.6038739854
       42.7000000000        1.5355230074
       42.8000000000        1.4412972690
       42.9000000000        1.3361341783
       43.0000000000        1.2341918424
       43.1000000000        1.1460442366
       43.2000000000        1.0768863417
       43.3000000000        1.0261065659
       43.4000000000        0.9882215364
       43.5000000000        0.9548294969
       43.6000000000        0.9170142023
       43.7000000000        0.8675744111
       43.8000000000        0.8025670510
       43.9000000000        0.7218886493
       44.0000000000        0.6289015993
       44.1000000000        0.5293550303
       44.2000000000        0.4299907031
       44.3000000000        0.3372374341
       44.4000000000        0.2563002082
       44.5000000000        0.1907896702
       44.6000000000        0.1428704263
       44.7000000000        0.1137772729
       44.8000000000        0.1044787016
       44.9000000000        0.1162560443
       45.0000000000        0.1510010485
       45.1000000000        0.2111003369
       45.2000000000        0.2988636423
       45.3000000000        0.4155594047
       45.4000000000        0.5602375470
       45.5000000000        0.7286239505
       45.6000000000        0.9124299872
       45.7000000000        1.0993959086
       45.8000000000        1.2742570916
       45.9000000000        1.4205996623
       46.0000000000        1.5233111071
       46.1000000000        1.5711158942
       46.2000000000        1.5585991104
       46.3000000000        1.4872092009
       46.4000000000        1.3649791845
       46.5000000000        1.2050383683
       46.6000000000        1.0232945707
       46.7000000000        0.8358510915
       46.8000000000        0.6567324820
       46.9000000000        0.4963427335
       47.0000000000        0.3608361270
       47.1000000000        0.2523332235
       47.2000000000        0.1697364641
       47.3000000000        0.1098276452
       47.4000000000        0.0683569716
       47.5000000000        0.0409248119
       47.6000000000        0.0235678916
       47.7000000000        0.0130551445
       47.8000000000        0.0069560970
       47.9000000000        0.0035650696
       48.0000000000        0.0017574528
       48.1000000000        0.0008333105
       48.2000000000        0.0003800417
       48.3000000000        0.0001667055
       48.4000000000        0.0000703325
       48.5000000000        0.0000285391
       48.6000000000        0.0000111377
       48.7000000000        0.0000041804
       48.8000000000        0.0000015090
       48.9000000000        0.0000005238
       49.0000000000        0.0000001749
       49.1000000000        0.0000000561
       49.2000000000        0.0000000173
       49.3000000000        0.0000000051
       49.4000000000        0.0000000015
       49.5000000000        0.0000000004
       49.6000000000        0.0000000001
       49.7000000000        0.0000000000
       49.8000000000        0.0000000000
       49.9000000000        0.0000000000
       50.0000000000        0.0000000000
       50.1000000000        0.0000000000
       50.2000000000        0.0000000000
       50.3000000000        0.0000000000
       50.4000000000        0.0000000000
       50.5000000000        0.0000000000
       50.6000000000        0.0000000000
       50.7000000000        0.0000000000
       50.8000000000        0.0000000000
       50.9000000000        0.0000000000
       51.0000000000        0.0000000000
       51.1000000000        0.0000000000
       51.2000000000        0.0000000000
       51.3000000000        0.0000000000
       51.4000000000        0.0000000000
       51.5000000000        0.0000000000
       51.6000000000        0.0000000000
       51.7000000000        0.0000000000
       51.8000000000        0.0000000000
       51.9000000000        0.0000000000
       52.0000000000        0.0000000000
       52.1000000000        0.0000000000
       52.2000000000        0.0000000000
       52.3000000000        0.0000000000
       52.4000000000        0.0000000000
       52.5000000000        0.0000000000
       52.6000000000        0.0000000000
       52.7000000000        0.0000000000
       52.8000000000        0.0000000000
       52.9000000000        0.0000000000
       53.0000000000        0.0000000000
       53.1000000000        0.0000000000
       53.2000000000        0.0000000000
       53.3000000000        0.0000000000
       53.4000000000        0.0000000000
       53.5000000000        0.0000000000
       53.6000000000        0.0000000000
       53.7000000000        0.0000000000
       53.8000000000        0.0000000000
       53.9000000000        0.0000000000
       54.0000000000        0.0000000000
       54.1000000000        0.0000000000
       54.2000000000        0.0000000000
       54.3000000000        0.0000000000
       54.4000000000        0.0000000000
       54.5000000000        0.0000000000
       54.6000000000        0.0000000000
       54.7000000000        0.0000000000
       54.8000000000        0.0000000000
       54.9000000000        0.0000000000
       55.0000000000        0.0000000000
       55.1000000000        0.0000000000
       55.2000000000        0.0000000000
       55.3000000000        0.0000000000
       55.4000000000        0.0000000000
       55.5000000000        0.0000000000
       55.6000000000        0.0000000000
       55.7000000000        0.0000000000
       55.8000000000        0.0000000000
       55.9000000000        0.0000000000
       56.0000000000        0.0000000000
       56.1000000000        0.0000000000
       56.2000000000        0.0000000000
       56.3000000000        0.0000000000
       56.4000000000        0.0000000000
       56.5000000000        0.0000000000
       56.6000000000        0.0000000000
       56.7000000000        0.0000000000
       56.8000000000        0.0000000000
       56.9000000000        0.0000000000
       57.0000000000        0.0000000000
       57.1000000000        0.0000000000
       57.2000000000        0.0000000000
       57.3000000000        0.0000000000
       57.4000000000        0.0000000000
       57.5000000000        0.0000000000
       57.6000000000        0.0000000000
       57.7000000000        0.0000000000
       57.8000000000        0.0000000000
       57.9000000000        0.0000000000
       58.0000000000        0.0000000000