nqpoint: 404    
npath: 4      
natom: 2      
phonon:
- q-position: [    0.0000000,    0.0000000,    0.0000000 ]
  distance:    0.0000000
  band:
  - # 1
    frequency:    0.0005828305
  - # 2
    frequency:    0.0005828305
  - # 3
    frequency:    0.0013400615
  - # 4
    frequency:    0.9617823556
  - # 5
    frequency:    0.9617823556
  - # 6
    frequency:    3.2431564552

- q-position: [    0.0050000,    0.0025000,    0.0075000 ]
  distance:    0.0017180
  band:
  - # 1
    frequency:    0.0349394378
  - # 2
    frequency:    0.0372379054
  - # 3
    frequency:    0.0538836909
  - # 4
    frequency:    0.9643331506
  - # 5
    frequency:    0.9647221969
  - # 6
    frequency:    3.2434229279

- q-position: [    0.0100000,    0.0050000,    0.0150000 ]
  distance:    0.0034360
  band:
  - # 1
    frequency:    0.0696972752
  - # 2
    frequency:    0.0742409134
  - # 3
    frequency:    0.1076915492
  - # 4
    frequency:    0.9719333497
  - # 5
    frequency:    0.9734830793
  - # 6
    frequency:    3.2442184366

- q-position: [    0.0150000,    0.0075000,    0.0225000 ]
  distance:    0.0051541
  band:
  - # 1
    frequency:    0.1041172862
  - # 2
    frequency:    0.1108065054
  - # 3
    frequency:    0.1614039271
  - # 4
    frequency:    0.9844295521
  - # 5
    frequency:    0.9878922581
  - # 6
    frequency:    3.2455312988

- q-position: [    0.0200000,    0.0100000,    0.0300000 ]
  distance:    0.0068721
  band:
  - # 1
    frequency:    0.1380500735
  - # 2
    frequency:    0.1467529384
  - # 3
    frequency:    0.2149685371
  - # 4
    frequency:    1.0015762242
  - # 5
    frequency:    1.0076722213
  - # 6
    frequency:    3.2473421951

- q-position: [    0.0250000,    0.0125000,    0.0375000 ]
  distance:    0.0085901
  band:
  - # 1
    frequency:    0.1713694392
  - # 2
    frequency:    0.1819390420
  - # 3
    frequency:    0.2683388650
  - # 4
    frequency:    1.0230496162
  - # 5
    frequency:    1.0324555066
  - # 6
    frequency:    3.2496243936

- q-position: [    0.0300000,    0.0150000,    0.0450000 ]
  distance:    0.0103081
  band:
  - # 1
    frequency:    0.2039738954
  - # 2
    frequency:    0.2162666903
  - # 3
    frequency:    0.3214717521
  - # 4
    frequency:    1.0484649099
  - # 5
    frequency:    1.0618037542
  - # 6
    frequency:    3.2523440578

- q-position: [    0.0350000,    0.0175000,    0.0525000 ]
  distance:    0.0120262
  band:
  - # 1
    frequency:    0.2357860660
  - # 2
    frequency:    0.2496785272
  - # 3
    frequency:    0.3743271028
  - # 4
    frequency:    1.0773947583
  - # 5
    frequency:    1.0952291989
  - # 6
    frequency:    3.2554606339

- q-position: [    0.0400000,    0.0200000,    0.0600000 ]
  distance:    0.0137442
  band:
  - # 1
    frequency:    0.2667500236
  - # 2
    frequency:    0.2821517489
  - # 3
    frequency:    0.4268677202
  - # 4
    frequency:    1.1093874565
  - # 5
    frequency:    1.1322164944
  - # 6
    frequency:    3.2589273085

- q-position: [    0.0450000,    0.0225000,    0.0675000 ]
  distance:    0.0154622
  band:
  - # 1
    frequency:    0.2968273856
  - # 2
    frequency:    0.3136897611
  - # 3
    frequency:    0.4790591148
  - # 4
    frequency:    1.1439833173
  - # 5
    frequency:    1.1722428597
  - # 6
    frequency:    3.2626915318

- q-position: [    0.0500000,    0.0250000,    0.0750000 ]
  distance:    0.0171802
  band:
  - # 1
    frequency:    0.3259930378
  - # 2
    frequency:    0.3443135038
  - # 3
    frequency:    0.5308693036
  - # 4
    frequency:    1.1807283180
  - # 5
    frequency:    1.2147950327
  - # 6
    frequency:    3.2666955946

- q-position: [    0.0550000,    0.0275000,    0.0825000 ]
  distance:    0.0188983
  band:
  - # 1
    frequency:    0.3542311627
  - # 2
    frequency:    0.3740537686
  - # 3
    frequency:    0.5822686217
  - # 4
    frequency:    1.2191846133
  - # 5
    frequency:    1.2593822307
  - # 6
    frequency:    3.2708772526

- q-position: [    0.0600000,    0.0300000,    0.0900000 ]
  distance:    0.0206163
  band:
  - # 1
    frequency:    0.3815319874
  - # 2
    frequency:    0.4029452242
  - # 3
    frequency:    0.6332295565
  - # 4
    frequency:    1.2589379539
  - # 5
    frequency:    1.3055450257
  - # 6
    frequency:    3.2751703874

- q-position: [    0.0650000,    0.0325000,    0.0975000 ]
  distance:    0.0223343
  band:
  - # 1
    frequency:    0.4078894121
  - # 2
    frequency:    0.4310223272
  - # 3
    frequency:    0.6837265995
  - # 4
    frequency:    1.2996023616
  - # 5
    frequency:    1.3528605695
  - # 6
    frequency:    3.2795056948

- q-position: [    0.0700000,    0.0350000,    0.1050000 ]
  distance:    0.0240523
  band:
  - # 1
    frequency:    0.4332994946
  - # 2
    frequency:    0.4583169366
  - # 3
    frequency:    0.7337361040
  - # 4
    frequency:    1.3408225709
  - # 5
    frequency:    1.4009448858
  - # 6
    frequency:    3.2838113913

- q-position: [    0.0750000,    0.0375000,    0.1125000 ]
  distance:    0.0257703
  band:
  - # 1
    frequency:    0.4577596580
  - # 2
    frequency:    0.4848572757
  - # 3
    frequency:    0.7832361340
  - # 4
    frequency:    1.3822747903
  - # 5
    frequency:    1.4494530225
  - # 6
    frequency:    3.2880139311

- q-position: [    0.0800000,    0.0400000,    0.1200000 ]
  distance:    0.0274884
  band:
  - # 1
    frequency:    0.4812684514
  - # 2
    frequency:    0.5106678492
  - # 3
    frequency:    0.8322062928
  - # 4
    frequency:    1.4236662872
  - # 5
    frequency:    1.4980777843
  - # 6
    frequency:    3.2920387231

- q-position: [    0.0850000,    0.0425000,    0.1275000 ]
  distance:    0.0292064
  band:
  - # 1
    frequency:    0.5038256888
  - # 2
    frequency:    0.5357699681
  - # 3
    frequency:    0.8806275206
  - # 4
    frequency:    1.4647342207
  - # 5
    frequency:    1.5465476298
  - # 6
    frequency:    3.2958108429

- q-position: [    0.0900000,    0.0450000,    0.1350000 ]
  distance:    0.0309244
  band:
  - # 1
    frequency:    0.5254328226
  - # 2
    frequency:    0.5601826086
  - # 3
    frequency:    0.9284818574
  - # 4
    frequency:    1.5052440450
  - # 5
    frequency:    1.5946241623
  - # 6
    frequency:    3.2992557320

- q-position: [    0.0950000,    0.0475000,    0.1425000 ]
  distance:    0.0326424
  band:
  - # 1
    frequency:    0.5460934382
  - # 2
    frequency:    0.5839234094
  - # 3
    frequency:    0.9757521677
  - # 4
    frequency:    1.5449877188
  - # 5
    frequency:    1.6420995065
  - # 6
    frequency:    3.3022998784

- q-position: [    0.1000000,    0.0500000,    0.1500000 ]
  distance:    0.0343605
  band:
  - # 1
    frequency:    0.5658137854
  - # 2
    frequency:    0.6070096787
  - # 3
    frequency:    1.0224218287
  - # 4
    frequency:    1.5837818754
  - # 5
    frequency:    1.6887937542
  - # 6
    frequency:    3.3048714740

- q-position: [    0.1050000,    0.0525000,    0.1575000 ]
  distance:    0.0360785
  band:
  - # 1
    frequency:    0.5846032942
  - # 2
    frequency:    0.6294593296
  - # 3
    frequency:    1.0684743843
  - # 4
    frequency:    1.6214660534
  - # 5
    frequency:    1.7345525788
  - # 6
    frequency:    3.3069010459

- q-position: [    0.1100000,    0.0550000,    0.1650000 ]
  distance:    0.0377965
  band:
  - # 1
    frequency:    0.6024750361
  - # 2
    frequency:    0.6512916985
  - # 3
    frequency:    1.1138931703
  - # 4
    frequency:    1.6579010422
  - # 5
    frequency:    1.7792450677
  - # 6
    frequency:    3.3083220566

- q-position: [    0.1150000,    0.0575000,    0.1725000 ]
  distance:    0.0395145
  band:
  - # 1
    frequency:    0.6194461121
  - # 2
    frequency:    0.6725282221
  - # 3
    frequency:    1.1586609152
  - # 4
    frequency:    1.6929673686
  - # 5
    frequency:    1.8227617811
  - # 6
    frequency:    3.3090714738

- q-position: [    0.1200000,    0.0600000,    0.1800000 ]
  distance:    0.0412325
  band:
  - # 1
    frequency:    0.6355379527
  - # 2
    frequency:    0.6931929642
  - # 3
    frequency:    1.2027593244
  - # 4
    frequency:    1.7265639298
  - # 5
    frequency:    1.8650130298
  - # 6
    frequency:    3.3090903063

- q-position: [    0.1250000,    0.0625000,    0.1875000 ]
  distance:    0.0429506
  band:
  - # 1
    frequency:    0.6507765258
  - # 2
    frequency:    0.7133129889
  - # 3
    frequency:    1.2461686537
  - # 4
    frequency:    1.7586067680
  - # 5
    frequency:    1.9059273478
  - # 6
    frequency:    3.3083241068

- q-position: [    0.1300000,    0.0650000,    0.1950000 ]
  distance:    0.0446686
  band:
  - # 1
    frequency:    0.6651924480
  - # 2
    frequency:    0.7329185818
  - # 3
    frequency:    1.2888672796
  - # 4
    frequency:    1.7890279740
  - # 5
    frequency:    1.9454501327
  - # 6
    frequency:    3.3067234413

- q-position: [    0.1350000,    0.0675000,    0.2025000 ]
  distance:    0.0463866
  band:
  - # 1
    frequency:    0.6788209985
  - # 2
    frequency:    0.7520433249
  - # 3
    frequency:    1.3308312743
  - # 4
    frequency:    1.8177747027
  - # 5
    frequency:    1.9835424267
  - # 6
    frequency:    3.3042443262

- q-position: [    0.1400000,    0.0700000,    0.2100000 ]
  distance:    0.0481046
  band:
  - # 1
    frequency:    0.6917020362
  - # 2
    frequency:    0.7707240284
  - # 3
    frequency:    1.3720339931
  - # 4
    frequency:    1.8448082857
  - # 5
    frequency:    2.0201798054
  - # 6
    frequency:    3.3008486340

- q-position: [    0.1450000,    0.0725000,    0.2175000 ]
  distance:    0.0498227
  band:
  - # 1
    frequency:    0.7038798194
  - # 2
    frequency:    0.7890005264
  - # 3
    frequency:    1.4124456820
  - # 4
    frequency:    1.8701034214
  - # 5
    frequency:    2.0553513510
  - # 6
    frequency:    3.2965044694

- q-position: [    0.1500000,    0.0750000,    0.2250000 ]
  distance:    0.0515407
  band:
  - # 1
    frequency:    0.7154027294
  - # 2
    frequency:    0.8069153439
  - # 3
    frequency:    1.4520331162
  - # 4
    frequency:    1.8936474296
  - # 5
    frequency:    2.0890586800
  - # 6
    frequency:    3.2911865173

- q-position: [    0.1550000,    0.0775000,    0.2325000 ]
  distance:    0.0532587
  band:
  - # 1
    frequency:    0.7263228986
  - # 2
    frequency:    0.8245132410
  - # 3
    frequency:    1.4907592770
  - # 4
    frequency:    1.9154395537
  - # 5
    frequency:    2.1213150042
  - # 6
    frequency:    3.2848763642

- q-position: [    0.1600000,    0.0800000,    0.2400000 ]
  distance:    0.0549767
  band:
  - # 1
    frequency:    0.7366957462
  - # 2
    frequency:    0.8418406470
  - # 3
    frequency:    1.5285830805
  - # 4
    frequency:    1.9354902984
  - # 5
    frequency:    2.1521441989
  - # 6
    frequency:    3.2775627968

- q-position: [    0.1650000,    0.0825000,    0.2475000 ]
  distance:    0.0566948
  band:
  - # 1
    frequency:    0.7465794225
  - # 2
    frequency:    0.8589449922
  - # 3
    frequency:    1.5654591698
  - # 4
    frequency:    1.9538207916
  - # 5
    frequency:    2.1815798583
  - # 6
    frequency:    3.2692420761

- q-position: [    0.1700000,    0.0850000,    0.2550000 ]
  distance:    0.0584128
  band:
  - # 1
    frequency:    0.7560341688
  - # 2
    frequency:    0.8758739529
  - # 3
    frequency:    1.6013377856
  - # 4
    frequency:    1.9704621597
  - # 5
    frequency:    2.2096643145
  - # 6
    frequency:    3.2599181916

- q-position: [    0.1750000,    0.0875000,    0.2625000 ]
  distance:    0.0601308
  band:
  - # 1
    frequency:    0.7651215976
  - # 2
    frequency:    0.8926746252
  - # 3
    frequency:    1.6361647309
  - # 4
    frequency:    1.9854549079
  - # 5
    frequency:    2.2364476006
  - # 6
    frequency:    3.2496030945

- q-position: [    0.1800000,    0.0900000,    0.2700000 ]
  distance:    0.0618488
  band:
  - # 1
    frequency:    0.7739039030
  - # 2
    frequency:    0.9093926428
  - # 3
    frequency:    1.6698814502
  - # 4
    frequency:    1.9988482980
  - # 5
    frequency:    2.2619863358
  - # 6
    frequency:    3.2383169096

- q-position: [    0.1850000,    0.0925000,    0.2775000 ]
  distance:    0.0635668
  band:
  - # 1
    frequency:    0.7824430130
  - # 2
    frequency:    0.9260712610
  - # 3
    frequency:    1.7024252399
  - # 4
    frequency:    2.0106997166
  - # 5
    frequency:    2.2863425143
  - # 6
    frequency:    3.2260881253

- q-position: [    0.1900000,    0.0950000,    0.2850000 ]
  distance:    0.0652849
  band:
  - # 1
    frequency:    0.7907996980
  - # 2
    frequency:    0.9427504250
  - # 3
    frequency:    1.7337296117
  - # 4
    frequency:    2.0210740301
  - # 5
    frequency:    2.3095821821
  - # 6
    frequency:    3.2129537582

- q-position: [    0.1950000,    0.0975000,    0.2925000 ]
  distance:    0.0670029
  band:
  - # 1
    frequency:    0.7990326528
  - # 2
    frequency:    0.9594658464
  - # 3
    frequency:    1.7637248264
  - # 4
    frequency:    2.0300429199
  - # 5
    frequency:    2.3317739917
  - # 6
    frequency:    3.1989594860

- q-position: [    0.2000000,    0.1000000,    0.3000000 ]
  distance:    0.0687209
  band:
  - # 1
    frequency:    0.8071975727
  - # 2
    frequency:    0.9762481072
  - # 3
    frequency:    1.7923386105
  - # 4
    frequency:    2.0376841964
  - # 5
    frequency:    2.3529876306
  - # 6
    frequency:    3.1841597409

- q-position: [    0.2050000,    0.1025000,    0.3075000 ]
  distance:    0.0704389
  band:
  - # 1
    frequency:    0.8153462452
  - # 2
    frequency:    0.9931218141
  - # 3
    frequency:    1.8194970642
  - # 4
    frequency:    2.0440810888
  - # 5
    frequency:    2.3732921374
  - # 6
    frequency:    3.1686177506

- q-position: [    0.2100000,    0.1050000,    0.3150000 ]
  distance:    0.0721570
  band:
  - # 1
    frequency:    0.8235256822
  - # 2
    frequency:    1.0101048205
  - # 3
    frequency:    1.8451257537
  - # 4
    frequency:    2.0493215085
  - # 5
    frequency:    2.3927541292
  - # 6
    frequency:    3.1524055094

- q-position: [    0.2150000,    0.1075000,    0.3225000 ]
  distance:    0.0738750
  band:
  - # 1
    frequency:    0.8317773147
  - # 2
    frequency:    1.0272075343
  - # 3
    frequency:    1.8691509727
  - # 4
    frequency:    2.0534972876
  - # 5
    frequency:    2.4114359898
  - # 6
    frequency:    3.1356036553

- q-position: [    0.2200000,    0.1100000,    0.3300000 ]
  distance:    0.0755930
  band:
  - # 1
    frequency:    0.8401362765
  - # 2
    frequency:    1.0444323230
  - # 3
    frequency:    1.8915011400
  - # 4
    frequency:    2.0567033915
  - # 5
    frequency:    2.4293940869
  - # 6
    frequency:    3.1183012245

- q-position: [    0.2250000,    0.1125000,    0.3375000 ]
  distance:    0.0773110
  band:
  - # 1
    frequency:    0.8486307970
  - # 2
    frequency:    1.0617730276
  - # 3
    frequency:    1.9121082898
  - # 4
    frequency:    2.0590371081
  - # 5
    frequency:    2.4466771080
  - # 6
    frequency:    3.1005952428

- q-position: [    0.2300000,    0.1150000,    0.3450000 ]
  distance:    0.0790291
  band:
  - # 1
    frequency:    0.8572817221
  - # 2
    frequency:    1.0792145876
  - # 3
    frequency:    1.9309096060
  - # 4
    frequency:    2.0605972165
  - # 5
    frequency:    2.4633246190
  - # 6
    frequency:    3.0825901111

- q-position: [    0.2350000,    0.1175000,    0.3525000 ]
  distance:    0.0807471
  band:
  - # 1
    frequency:    0.8661021801
  - # 2
    frequency:    1.0967327798
  - # 3
    frequency:    1.9478489503
  - # 4
    frequency:    2.0614831395
  - # 5
    frequency:    2.4793659531
  - # 6
    frequency:    3.0643967321

- q-position: [    0.2400000,    0.1200000,    0.3600000 ]
  distance:    0.0824651
  band:
  - # 1
    frequency:    0.8750974013
  - # 2
    frequency:    1.1142940659
  - # 3
    frequency:    1.9628783543
  - # 4
    frequency:    2.0617940845
  - # 5
    frequency:    2.4948195282
  - # 6
    frequency:    3.0461313257

- q-position: [    0.2450000,    0.1225000,    0.3675000 ]
  distance:    0.0841831
  band:
  - # 1
    frequency:    0.8842646970
  - # 2
    frequency:    1.1318555405
  - # 3
    frequency:    1.9759594631
  - # 4
    frequency:    2.0616281802
  - # 5
    frequency:    2.5096926602
  - # 6
    frequency:    3.0279138815

- q-position: [    0.2500000,    0.1250000,    0.3750000 ]
  distance:    0.0859011
  band:
  - # 1
    frequency:    0.8935935993
  - # 2
    frequency:    1.1493649696
  - # 3
    frequency:    1.9870649518
  - # 4
    frequency:    2.0610816164
  - # 5
    frequency:    2.5239819000
  - # 6
    frequency:    3.0098662125

- q-position: [    0.2550000,    0.1275000,    0.3825000 ]
  distance:    0.0876192
  band:
  - # 1
    frequency:    0.9030661534
  - # 2
    frequency:    1.1667609052
  - # 3
    frequency:    1.9961799631
  - # 4
    frequency:    2.0602477958
  - # 5
    frequency:    2.5376738667
  - # 6
    frequency:    2.9921095986

- q-position: [    0.2600000,    0.1300000,    0.3900000 ]
  distance:    0.0893372
  band:
  - # 1
    frequency:    0.9126573547
  - # 2
    frequency:    1.1839728613
  - # 3
    frequency:    2.0033036220
  - # 4
    frequency:    2.0592165084
  - # 5
    frequency:    2.5507464887
  - # 6
    frequency:    2.9747620536

- q-position: [    0.2650000,    0.1325000,    0.3975000 ]
  distance:    0.0910552
  band:
  - # 1
    frequency:    0.9223357148
  - # 2
    frequency:    1.2009215393
  - # 3
    frequency:    2.0084506813
  - # 4
    frequency:    2.0580731377
  - # 5
    frequency:    2.5631705143
  - # 6
    frequency:    2.9579353110

- q-position: [    0.2700000,    0.1350000,    0.4050000 ]
  distance:    0.0927732
  band:
  - # 1
    frequency:    0.9320639388
  - # 2
    frequency:    1.2175190905
  - # 3
    frequency:    2.0116533076
  - # 4
    frequency:    2.0568979127
  - # 5
    frequency:    2.5749111027
  - # 6
    frequency:    2.9417317009

- q-position: [    0.2750000,    0.1375000,    0.4125000 ]
  distance:    0.0944913
  band:
  - # 1
    frequency:    0.9417996952
  - # 2
    frequency:    1.2336694134
  - # 3
    frequency:    2.0129629604
  - # 4
    frequency:    2.0557652161
  - # 5
    frequency:    2.5859292776
  - # 6
    frequency:    2.9262411776

- q-position: [    0.2800000,    0.1400000,    0.4200000 ]
  distance:    0.0962093
  band:
  - # 1
    frequency:    0.9514964551
  - # 2
    frequency:    1.2492684894
  - # 3
    frequency:    2.0124522399
  - # 4
    frequency:    2.0547429603
  - # 5
    frequency:    2.5961830102
  - # 6
    frequency:    2.9115388348

- q-position: [    0.2850000,    0.1425000,    0.4275000 ]
  distance:    0.0979273
  band:
  - # 1
    frequency:    0.9611043814
  - # 2
    frequency:    1.2642047790
  - # 3
    frequency:    2.0102165077
  - # 4
    frequency:    2.0538920452
  - # 5
    frequency:    2.6056277028
  - # 6
    frequency:    2.8976833007

- q-position: [    0.2900000,    0.1450000,    0.4350000 ]
  distance:    0.0996453
  band:
  - # 1
    frequency:    0.9705712447
  - # 2
    frequency:    1.2783597176
  - # 3
    frequency:    2.0063750350
  - # 4
    frequency:    2.0532659070
  - # 5
    frequency:    2.6142158779
  - # 6
    frequency:    2.8847163965

- q-position: [    0.2950000,    0.1475000,    0.4425000 ]
  distance:    0.1013634
  band:
  - # 1
    frequency:    0.9798433479
  - # 2
    frequency:    1.2916083783
  - # 3
    frequency:    2.0010714115
  - # 4
    frequency:    2.0529101684
  - # 5
    frequency:    2.6218959496
  - # 6
    frequency:    2.8726643676

- q-position: [    0.3000000,    0.1500000,    0.4500000 ]
  distance:    0.1030814
  band:
  - # 1
    frequency:    0.9888664390
  - # 2
    frequency:    1.3038204023
  - # 3
    frequency:    1.9944729739
  - # 4
    frequency:    2.0528623996
  - # 5
    frequency:    2.6286100851
  - # 6
    frequency:    2.8615408078

- q-position: [    0.3050000,    0.1525000,    0.4575000 ]
  distance:    0.1047994
  band:
  - # 1
    frequency:    0.9975865970
  - # 2
    frequency:    1.3148613322
  - # 3
    frequency:    1.9867690576
  - # 4
    frequency:    2.0531519960
  - # 5
    frequency:    2.6342913811
  - # 6
    frequency:    2.8513510962

- q-position: [    0.3100000,    0.1550000,    0.4650000 ]
  distance:    0.1065174
  band:
  - # 1
    frequency:    1.0059510766
  - # 2
    frequency:    1.3245945186
  - # 3
    frequency:    1.9781679427
  - # 4
    frequency:    2.0538001754
  - # 5
    frequency:    2.6388609016
  - # 6
    frequency:    2.8420977468

- q-position: [    0.3150000,    0.1575000,    0.4725000 ]
  distance:    0.1082354
  band:
  - # 1
    frequency:    1.0139090996
  - # 2
    frequency:    1.3328837901
  - # 3
    frequency:    1.9688924369
  - # 4
    frequency:    2.0548200977
  - # 5
    frequency:    2.6422255468
  - # 6
    frequency:    2.8337855534

- q-position: [    0.3200000,    0.1600000,    0.4800000 ]
  distance:    0.1099535
  band:
  - # 1
    frequency:    1.0214125841
  - # 2
    frequency:    1.3395970643
  - # 3
    frequency:    1.9591741107
  - # 4
    frequency:    2.0562171041
  - # 5
    frequency:    2.6442781537
  - # 6
    frequency:    2.8264249248

- q-position: [    0.3250000,    0.1625000,    0.4875000 ]
  distance:    0.1116715
  band:
  - # 1
    frequency:    1.0284168050
  - # 2
    frequency:    1.3446110115
  - # 3
    frequency:    1.9492462909
  - # 4
    frequency:    2.0579890705
  - # 5
    frequency:    2.6449014140
  - # 6
    frequency:    2.8200315921

- q-position: [    0.3300000,    0.1650000,    0.4950000 ]
  distance:    0.1133895
  band:
  - # 1
    frequency:    1.0348809820
  - # 2
    frequency:    1.3478167392
  - # 3
    frequency:    1.9393360497
  - # 4
    frequency:    2.0601268674
  - # 5
    frequency:    2.6439767046
  - # 6
    frequency:    2.8146213752

- q-position: [    0.3350000,    0.1675000,    0.5025000 ]
  distance:    0.1151075
  band:
  - # 1
    frequency:    1.0407687929
  - # 2
    frequency:    1.3491262423
  - # 3
    frequency:    1.9296556092
  - # 4
    frequency:    2.0626149145
  - # 5
    frequency:    2.6413973706
  - # 6
    frequency:    2.8102002915

- q-position: [    0.3400000,    0.1700000,    0.5100000 ]
  distance:    0.1168256
  band:
  - # 1
    frequency:    1.0460488133
  - # 2
    frequency:    1.3484790803
  - # 3
    frequency:    1.9203938128
  - # 4
    frequency:    2.0654318165
  - # 5
    frequency:    2.6370836499
  - # 6
    frequency:    2.8067526912

- q-position: [    0.3450000,    0.1725000,    0.5175000 ]
  distance:    0.1185436
  band:
  - # 1
    frequency:    1.0506948842
  - # 2
    frequency:    1.3458484803
  - # 3
    frequency:    1.9117085210
  - # 4
    frequency:    2.0685510645
  - # 5
    frequency:    2.6309946257
  - # 6
    frequency:    2.8042319655

- q-position: [    0.3500000,    0.1750000,    0.5250000 ]
  distance:    0.1202616
  band:
  - # 1
    frequency:    1.0546864115
  - # 2
    frequency:    1.3412459119
  - # 3
    frequency:    1.9037208956
  - # 4
    frequency:    2.0719417843
  - # 5
    frequency:    2.6231330818
  - # 6
    frequency:    2.8025579272

- q-position: [    0.3550000,    0.1775000,    0.5325000 ]
  distance:    0.1219796
  band:
  - # 1
    frequency:    1.0580086009
  - # 2
    frequency:    1.3347232617
  - # 3
    frequency:    1.8965124207
  - # 4
    frequency:    2.0755695149
  - # 5
    frequency:    2.6135421667
  - # 6
    frequency:    2.8016219721

- q-position: [    0.3600000,    0.1800000,    0.5400000 ]
  distance:    0.1236976
  band:
  - # 1
    frequency:    1.0606526344
  - # 2
    frequency:    1.3263720664
  - # 3
    frequency:    1.8901251543
  - # 4
    frequency:    2.0793969992
  - # 5
    frequency:    2.6022963139
  - # 6
    frequency:    2.8012976039

- q-position: [    0.3650000,    0.1825000,    0.5475000 ]
  distance:    0.1254157
  band:
  - # 1
    frequency:    1.0626157902
  - # 2
    frequency:    1.3163197881
  - # 3
    frequency:    1.8845651683
  - # 4
    frequency:    2.0833849673
  - # 5
    frequency:    2.5894905008
  - # 6
    frequency:    2.8014522890

- q-position: [    0.3700000,    0.1850000,    0.5550000 ]
  distance:    0.1271337
  band:
  - # 1
    frequency:    1.0639015135
  - # 2
    frequency:    1.3047236683
  - # 3
    frequency:    1.8798085823
  - # 4
    frequency:    2.0874928995
  - # 5
    frequency:    2.5752311458
  - # 6
    frequency:    2.8019573817

- q-position: [    0.3750000,    0.1875000,    0.5625000 ]
  distance:    0.1288517
  band:
  - # 1
    frequency:    1.0645194379
  - # 2
    frequency:    1.2917630895
  - # 3
    frequency:    1.8758092016
  - # 4
    frequency:    2.0916797515
  - # 5
    frequency:    2.5596300762
  - # 6
    frequency:    2.8026947349

- q-position: [    0.3800000,    0.1900000,    0.5700000 ]
  distance:    0.1305697
  band:
  - # 1
    frequency:    1.0644853610
  - # 2
    frequency:    1.2776315063
  - # 3
    frequency:    1.8725066456
  - # 4
    frequency:    2.0959046324
  - # 5
    frequency:    2.5428014491
  - # 6
    frequency:    2.8035601496

- q-position: [    0.3850000,    0.1925000,    0.5775000 ]
  distance:    0.1322878
  band:
  - # 1
    frequency:    1.0638211749
  - # 2
    frequency:    1.2625288809
  - # 3
    frequency:    1.8698339861
  - # 4
    frequency:    2.1001274231
  - # 5
    frequency:    2.5248607971
  - # 6
    frequency:    2.8044645211

- q-position: [    0.3900000,    0.1950000,    0.5850000 ]
  distance:    0.1340058
  band:
  - # 1
    frequency:    1.0625547499
  - # 2
    frequency:    1.2466552637
  - # 3
    frequency:    1.8677242105
  - # 4
    frequency:    2.1043093301
  - # 5
    frequency:    2.5059253012
  - # 6
    frequency:    2.8053336050

- q-position: [    0.3950000,    0.1975000,    0.5925000 ]
  distance:    0.1357238
  band:
  - # 1
    frequency:    1.0607197695
  - # 2
    frequency:    1.2302058264
  - # 3
    frequency:    1.8661151663
  - # 4
    frequency:    2.1084133682
  - # 5
    frequency:    2.4861146116
  - # 6
    frequency:    2.8061071003

- q-position: [    0.4000000,    0.2000000,    0.6000000 ]
  distance:    0.1374418
  band:
  - # 1
    frequency:    1.0583555142
  - # 2
    frequency:    1.2133673717
  - # 3
    frequency:    1.8649529264
  - # 4
    frequency:    2.1124047696
  - # 5
    frequency:    2.4655517955
  - # 6
    frequency:    2.8067374891

- q-position: [    0.4050000,    0.2025000,    0.6075000 ]
  distance:    0.1391599
  band:
  - # 1
    frequency:    1.0555065889
  - # 2
    frequency:    1.1963161571
  - # 3
    frequency:    1.8641937036
  - # 4
    frequency:    2.1162513189
  - # 5
    frequency:    2.4443641928
  - # 6
    frequency:    2.8071888657

- q-position: [    0.4100000,    0.2050000,    0.6150000 ]
  distance:    0.1408779
  band:
  - # 1
    frequency:    1.0522225905
  - # 2
    frequency:    1.1792167755
  - # 3
    frequency:    1.8638045347
  - # 4
    frequency:    2.1199236152
  - # 5
    frequency:    2.4226840964
  - # 6
    frequency:    2.8074358570

- q-position: [    0.4150000,    0.2075000,    0.6225000 ]
  distance:    0.1425959
  band:
  - # 1
    frequency:    1.0485577088
  - # 2
    frequency:    1.1622218192
  - # 3
    frequency:    1.8637629691
  - # 4
    frequency:    2.1233952625
  - # 5
    frequency:    2.4006492477
  - # 6
    frequency:    2.8074626640

- q-position: [    0.4200000,    0.2100000,    0.6300000 ]
  distance:    0.1443139
  band:
  - # 1
    frequency:    1.0445702585
  - # 2
    frequency:    1.1454720754
  - # 3
    frequency:    1.8640559684
  - # 4
    frequency:    2.1266429936
  - # 5
    frequency:    2.3784031818
  - # 6
    frequency:    2.8072622194

- q-position: [    0.4250000,    0.2125000,    0.6375000 ]
  distance:    0.1460319
  band:
  - # 1
    frequency:    1.0403221362
  - # 2
    frequency:    1.1290970479
  - # 3
    frequency:    1.8646781739
  - # 4
    frequency:    2.1296467305
  - # 5
    frequency:    2.3560954813
  - # 6
    frequency:    2.8068354384

- q-position: [    0.4300000,    0.2150000,    0.6450000 ]
  distance:    0.1477500
  band:
  - # 1
    frequency:    1.0358782006
  - # 2
    frequency:    1.1132156471
  - # 3
    frequency:    1.8656296395
  - # 4
    frequency:    2.1323895872
  - # 5
    frequency:    2.3338820120
  - # 6
    frequency:    2.8061905415

- q-position: [    0.4350000,    0.2175000,    0.6525000 ]
  distance:    0.1494680
  band:
  - # 1
    frequency:    1.0313055748
  - # 2
    frequency:    1.0979369378
  - # 3
    frequency:    1.8669130767
  - # 4
    frequency:    2.1348578207
  - # 5
    frequency:    2.3119252279
  - # 6
    frequency:    2.8053424253

- q-position: [    0.4400000,    0.2200000,    0.6600000 ]
  distance:    0.1511860
  band:
  - # 1
    frequency:    1.0266728709
  - # 2
    frequency:    1.0833608670
  - # 3
    frequency:    1.8685306147
  - # 4
    frequency:    2.1370407349
  - # 5
    frequency:    2.2903946428
  - # 6
    frequency:    2.8043120626

- q-position: [    0.4450000,    0.2225000,    0.6675000 ]
  distance:    0.1529040
  band:
  - # 1
    frequency:    1.0220493434
  - # 2
    frequency:    1.0695789273
  - # 3
    frequency:    1.8704800502
  - # 4
    frequency:    2.1389305456
  - # 5
    frequency:    2.2694675717
  - # 6
    frequency:    2.8031259196

- q-position: [    0.4500000,    0.2250000,    0.6750000 ]
  distance:    0.1546221
  band:
  - # 1
    frequency:    1.0175039757
  - # 2
    frequency:    1.0566747301
  - # 3
    frequency:    1.8727505554
  - # 4
    frequency:    2.1405222099
  - # 5
    frequency:    2.2493302378
  - # 6
    frequency:    2.8018153760

- q-position: [    0.4550000,    0.2275000,    0.6825000 ]
  distance:    0.1563401
  band:
  - # 1
    frequency:    1.0131045141
  - # 2
    frequency:    1.0447244777
  - # 3