14.400
  28.55661  -0.00000  -0.00000  -0.00000  28.55661  -0.00000  -0.00000   0.00000  28.55661
   5.80577   0.00000  -0.00000   0.00000   5.80577   0.00000   0.00000   0.00000   5.80577
  -5.80515   0.00000   0.00000   0.00000  -5.80515   0.00000   0.00000   0.00000  -5.80515
