128  
2    

1    
  0.0000000000000000   0.0070710678118655   0.0070710678118655
   0.0000000000   -0.0167949100   -0.0167949100
   0.0000000000    0.0027243900    0.0027243900
   0.0000000000    0.0005785200    0.0005785200
   0.0000000000    0.0026998700    0.0026998700
   0.0026795900   -0.0001937900    0.0000364800
   0.0001689600    0.0001306600    0.0002998000
  -0.0001691000    0.0002981200    0.0001319300
  -0.0026685800    0.0000393400   -0.0001923200
   0.0003873400   -0.0000559800    0.0001912200
  -0.0000009700   -0.0000380100   -0.0000375000
  -0.0003873400    0.0001912200   -0.0000559800
   0.0000009700   -0.0000375000   -0.0000380100
   0.0026685800   -0.0001923200    0.0000393400
  -0.0026795900    0.0000364800   -0.0001937900
  -0.0001689600    0.0002998000    0.0001306600
   0.0001691000    0.0001319300    0.0002981200
   0.0026795900    0.0000364800   -0.0001937900
   0.0001689600    0.0002998000    0.0001306600
  -0.0001691000    0.0001319300    0.0002981200
  -0.0026685800   -0.0001923200    0.0000393400
   0.0002355400    0.0000653700    0.0000653700
   0.0000000700    0.0000823600    0.0000823600
  -0.0002339900    0.0000660100    0.0000660100
  -0.0000096700    0.0002911700    0.0002911700
   0.0000652600   -0.0001037700    0.0000636100
  -0.0000660100    0.0000648000   -0.0001029400
  -0.0003687900    0.0002764500   -0.0000447500
   0.0003716300   -0.0000453400    0.0002751600
   0.0000000000   -0.0026338700   -0.0026385800
   0.0000000000    0.0041830500    0.0002944200
   0.0000000000    0.0006474700    0.0006445800
   0.0000000000    0.0002880700    0.0041910800
   0.0003873400    0.0001912200   -0.0000559800
  -0.0000009700   -0.0000375000   -0.0000380100
  -0.0003873400   -0.0000559800    0.0001912200
   0.0000009700   -0.0000380100   -0.0000375000
   0.0000652600    0.0000636100   -0.0001037700
  -0.0000660100   -0.0001029400    0.0000648000
  -0.0003687900   -0.0000447500    0.0002764500
   0.0003716300    0.0002751600   -0.0000453400
   0.0000000000   -0.0001961500   -0.0001961500
   0.0000000000   -0.0000922700   -0.0000922700
   0.0000000000    0.0010838500    0.0010838500
   0.0000000000   -0.0000964900   -0.0000964900
   0.0000660100    0.0000648000   -0.0001029400
   0.0003687900    0.0002764500   -0.0000447500
  -0.0003716300   -0.0000453400    0.0002751600
  -0.0000652600   -0.0001037700    0.0000636100
   0.0026685800    0.0000393400   -0.0001923200
  -0.0026795900   -0.0001937900    0.0000364800
  -0.0001689600    0.0001306600    0.0002998000
   0.0001691000    0.0002981200    0.0001319300
   0.0000000000   -0.0026385800   -0.0026338700
   0.0000000000    0.0002944200    0.0041830500
   0.0000000000    0.0006445800    0.0006474700
   0.0000000000    0.0041910800    0.0002880700
   0.0000660100   -0.0001029400    0.0000648000
   0.0003687900   -0.0000447500    0.0002764500
  -0.0003716300    0.0002751600   -0.0000453400
  -0.0000652600    0.0000636100   -0.0001037700
   0.0002339900    0.0000660100    0.0000660100
   0.0000096700    0.0002911700    0.0002911700
  -0.0002355400    0.0000653700    0.0000653700
  -0.0000000700    0.0000823600    0.0000823600
  -0.0004050800   -0.0002099900   -0.0002099900
   0.0000000800   -0.0001759300   -0.0001759300
   0.0004021500   -0.0002084300   -0.0002084300
  -0.0000113500    0.0007554200    0.0007554200
  -0.0000838100   -0.0000167600   -0.0000919300
   0.0000841800   -0.0000919600   -0.0000172800
   0.0006566900   -0.0001004700    0.0000162300
  -0.0006606500    0.0000161600   -0.0000989600
   0.0000012100    0.0001939700    0.0001947700
   0.0004485500   -0.0003345600    0.0000160600
  -0.0000007400   -0.0001499800   -0.0001491400
  -0.0004505300    0.0000163400   -0.0003365900
   0.0000000000    0.0046241300    0.0007515100
   0.0000000000   -0.0009959000   -0.0005487800
   0.0000000000   -0.0005497100   -0.0009926000
   0.0000000000    0.0007587500    0.0043334700
  -0.0000838100   -0.0000919300   -0.0000167600
   0.0000841800   -0.0000172800   -0.0000919600
   0.0006566900    0.0000162300   -0.0001004700
  -0.0006606500   -0.0000989600    0.0000161600
   0.0000000400   -0.0000079400   -0.0000079400
   0.0000935400   -0.0000562700   -0.0000562700
   0.0000027700   -0.0003073500   -0.0003073500
  -0.0000944900   -0.0000547700   -0.0000547700
   0.0000000000    0.0003205600    0.0003488300
   0.0000000000   -0.0017949500   -0.0003079100
   0.0000000000   -0.0003068300   -0.0017974600
   0.0000000000    0.0003508200    0.0003255800
  -0.0004485500   -0.0003345600    0.0000160600
   0.0000007400   -0.0001499800   -0.0001491400
   0.0004505300    0.0000163400   -0.0003365900
  -0.0000012100    0.0001939700    0.0001947700
   0.0000012100    0.0001947700    0.0001939700
   0.0004485500    0.0000160600   -0.0003345600
  -0.0000007400   -0.0001491400   -0.0001499800
  -0.0004505300   -0.0003365900    0.0000163400
   0.0000000000    0.0003488300    0.0003205600
   0.0000000000   -0.0003079100   -0.0017949500
   0.0000000000   -0.0017974600   -0.0003068300
   0.0000000000    0.0003255800    0.0003508200
  -0.0000935400   -0.0000562700   -0.0000562700
  -0.0000027700   -0.0003073500   -0.0003073500
   0.0000944900   -0.0000547700   -0.0000547700
  -0.0000000400   -0.0000079400   -0.0000079400
  -0.0006566900   -0.0001004700    0.0000162300
   0.0006606500    0.0000161600   -0.0000989600
   0.0000838100   -0.0000167600   -0.0000919300
  -0.0000841800   -0.0000919600   -0.0000172800
   0.0000000000    0.0007515100    0.0046241300
   0.0000000000   -0.0005487800   -0.0009959000
   0.0000000000   -0.0009926000   -0.0005497100
   0.0000000000    0.0043334700    0.0007587500
  -0.0004485500    0.0000160600   -0.0003345600
   0.0000007400   -0.0001491400   -0.0001499800
   0.0004505300   -0.0003365900    0.0000163400
  -0.0000012100    0.0001947700    0.0001939700
  -0.0006566900    0.0000162300   -0.0001004700
   0.0006606500   -0.0000989600    0.0000161600
   0.0000838100   -0.0000919300   -0.0000167600
  -0.0000841800   -0.0000172800   -0.0000919600
   0.0000113500    0.0007554200    0.0007554200
   0.0004050800   -0.0002099900   -0.0002099900
  -0.0000000800   -0.0001759300   -0.0001759300
  -0.0004021500   -0.0002084300   -0.0002084300

65   
  0.0000000000000000   0.0070710678118655   0.0070710678118655
  -0.0004036100   -0.0002096700   -0.0002096700
   0.0000014700    0.0007548300    0.0007548300
   0.0004053400   -0.0002081900   -0.0002081900
   0.0000004200   -0.0001765400   -0.0001765400
  -0.0000000000    0.0043363200    0.0007671000
  -0.0000000000    0.0007419900    0.0046214800
  -0.0000000000   -0.0007592900   -0.0007870500
  -0.0000000000   -0.0007831700   -0.0007583400
   0.0000006800    0.0001944200    0.0001963900
  -0.0006593100    0.0000156900   -0.0003346400
  -0.0000011300   -0.0001497600   -0.0001507300
   0.0006580400   -0.0003359000    0.0000158700
  -0.0000840200   -0.0000167400   -0.0000920200
  -0.0004495300    0.0000157900   -0.0001018500
   0.0004499600   -0.0000984200    0.0000156300
   0.0000843500   -0.0000925800   -0.0000162800
  -0.0000000000    0.0007671000    0.0043363200
  -0.0000000000    0.0046214800    0.0007419900
  -0.0000000000   -0.0007870500   -0.0007592900
  -0.0000000000   -0.0007583400   -0.0007831700
  -0.0000014700    0.0007548300    0.0007548300
  -0.0004053400   -0.0002081900   -0.0002081900
  -0.0000004200   -0.0001765400   -0.0001765400
   0.0004036100   -0.0002096700   -0.0002096700
  -0.0004499600    0.0000156300   -0.0000984200
  -0.0000843500   -0.0000162800   -0.0000925800
   0.0000840200   -0.0000920200   -0.0000167400
   0.0004495300   -0.0001018500    0.0000157900
  -0.0006580400    0.0000158700   -0.0003359000
  -0.0000006800    0.0001963900    0.0001944200
   0.0006593100   -0.0003346400    0.0000156900
   0.0000011300   -0.0001507300   -0.0001497600
   0.0000006800    0.0001963900    0.0001944200
  -0.0006593100   -0.0003346400    0.0000156900
  -0.0000011300   -0.0001507300   -0.0001497600
   0.0006580400    0.0000158700   -0.0003359000
  -0.0004499600   -0.0000984200    0.0000156300
  -0.0000843500   -0.0000925800   -0.0000162800
   0.0000840200   -0.0000167400   -0.0000920200
   0.0004495300    0.0000157900   -0.0001018500
  -0.0000926600   -0.0000570600   -0.0000570600
  -0.0000000200   -0.0000081600   -0.0000081600
   0.0000933500   -0.0000571500   -0.0000571500
   0.0000049700   -0.0003073900   -0.0003073900
  -0.0000000000    0.0005573000    0.0001131900
  -0.0000000000    0.0001156000    0.0005598000
  -0.0000000000   -0.0017998800   -0.0003064800
  -0.0000000000   -0.0003081600   -0.0017925700
  -0.0000840200   -0.0000920200   -0.0000167400
  -0.0004495300   -0.0001018500    0.0000157900
   0.0004499600    0.0000156300   -0.0000984200
   0.0000843500   -0.0000162800   -0.0000925800
  -0.0006580400   -0.0003359000    0.0000158700
  -0.0000006800    0.0001944200    0.0001963900
   0.0006593100    0.0000156900   -0.0003346400
   0.0000011300   -0.0001497600   -0.0001507300
  -0.0000000000    0.0001131900    0.0005573000
  -0.0000000000    0.0005598000    0.0001156000
  -0.0000000000   -0.0003064800   -0.0017998800
  -0.0000000000   -0.0017925700   -0.0003081600
   0.0000000200   -0.0000081600   -0.0000081600
  -0.0000933500   -0.0000571500   -0.0000571500
  -0.0000049700   -0.0003073900   -0.0003073900
   0.0000926600   -0.0000570600   -0.0000570600
  -0.0000000000   -0.0220694900   -0.0220694900
  -0.0000000000    0.0012520600    0.0012520600
  -0.0000000000    0.0003160200    0.0003160200
  -0.0000000000    0.0012265800    0.0012265800
   0.0009527700   -0.0000523000    0.0002887100
   0.0001269500    0.0001314100    0.0002159600
  -0.0001258600    0.0002156900    0.0001317700
  -0.0009487900    0.0002872200   -0.0000515500
   0.0002414100    0.0000102100    0.0000742000
   0.0000003300    0.0000048300    0.0000055700
  -0.0002414100    0.0000742000    0.0000102100
  -0.0000003300    0.0000055700    0.0000048300
   0.0009487900   -0.0000515500    0.0002872200
  -0.0009527700    0.0002887100   -0.0000523000
  -0.0001269500    0.0002159600    0.0001314100
   0.0001258600    0.0001317700    0.0002156900
   0.0009527700    0.0002887100   -0.0000523000
   0.0001269500    0.0002159600    0.0001314100
  -0.0001258600    0.0001317700    0.0002156900
  -0.0009487900   -0.0000515500    0.0002872200
   0.0001661400    0.0000923600    0.0000923600
   0.0000001700    0.0000824600    0.0000824600
  -0.0001653300    0.0000922500    0.0000922500
  -0.0000138300    0.0002323700    0.0002323700
   0.0000392100   -0.0000342000    0.0000506000
  -0.0000393500    0.0000496200   -0.0000339800
  -0.0003271200    0.0005046400    0.0002026200
   0.0003259300    0.0002037200    0.0005037500
  -0.0000000000   -0.0006648900   -0.0006607800
  -0.0000000000    0.0043573300    0.0002344300
  -0.0000000000    0.0008323200    0.0008291800
  -0.0000000000    0.0002303100    0.0043415700
   0.0002414100    0.0000742000    0.0000102100
   0.0000003300    0.0000055700    0.0000048300
  -0.0002414100    0.0000102100    0.0000742000
  -0.0000003300    0.0000048300    0.0000055700
   0.0000392100    0.0000506000   -0.0000342000
  -0.0000393500   -0.0000339800    0.0000496200
  -0.0003271200    0.0002026200    0.0005046400
   0.0003259300    0.0005037500    0.0002037200
  -0.0000000000   -0.0001671800   -0.0001671800
  -0.0000000000    0.0001767800    0.0001767800
  -0.0000000000    0.0010624200    0.0010624200
  -0.0000000000    0.0001785600    0.0001785600
   0.0000393500    0.0000496200   -0.0000339800
   0.0003271200    0.0005046400    0.0002026200
  -0.0003259300    0.0002037200    0.0005037500
  -0.0000392100   -0.0000342000    0.0000506000
   0.0009487900    0.0002872200   -0.0000515500
  -0.0009527700   -0.0000523000    0.0002887100
  -0.0001269500    0.0001314100    0.0002159600
   0.0001258600    0.0002156900    0.0001317700
  -0.0000000000   -0.0006607800   -0.0006648900
  -0.0000000000    0.0002344300    0.0043573300
  -0.0000000000    0.0008291800    0.0008323200
  -0.0000000000    0.0043415700    0.0002303100
   0.0000393500   -0.0000339800    0.0000496200
   0.0003271200    0.0002026200    0.0005046400
  -0.0003259300    0.0005037500    0.0002037200
  -0.0000392100    0.0000506000   -0.0000342000
   0.0001653300    0.0000922500    0.0000922500
   0.0000138300    0.0002323700    0.0002323700
  -0.0001661400    0.0000923600    0.0000923600
  -0.0000001700    0.0000824600    0.0000824600
