mesh: [    48,    48,    48 ]
nqpoint: 2769   
natom:   2      
phonon:
- q-position: [    0.0000000,    0.0000000,    0.0000000 ]
  weight: 1    
  band:
  - # 1
    frequency:     0.0005828305
  - # 2
    frequency:     0.0005828305
  - # 3
    frequency:     0.0005828305
  - # 4
    frequency:     0.9617823556
  - # 5
    frequency:     0.9617823556
  - # 6
    frequency:     0.9617823556

- q-position: [    0.0208333,    0.0000000,    0.0000000 ]
  weight: 8    
  band:
  - # 1
    frequency:     0.1200123530
  - # 2
    frequency:     0.1200123530
  - # 3
    frequency:     0.1673550567
  - # 4
    frequency:     0.9921514368
  - # 5
    frequency:     0.9921514368
  - # 6
    frequency:     3.2446342939

- q-position: [    0.0416667,    0.0000000,    0.0000000 ]
  weight: 8    
  band:
  - # 1
    frequency:     0.2343355965
  - # 2
    frequency:     0.2343355965
  - # 3
    frequency:     0.3328977350
  - # 4
    frequency:     1.0779544420
  - # 5
    frequency:     1.0779544420
  - # 6
    frequency:     3.2491153557

- q-position: [    0.0625000,    0.0000000,    0.0000000 ]
  weight: 8    
  band:
  - # 1
    frequency:     0.3408734520
  - # 2
    frequency:     0.3408734520
  - # 3
    frequency:     0.4949124367
  - # 4
    frequency:     1.2058761168
  - # 5
    frequency:     1.2058761168
  - # 6
    frequency:     3.2567217209

- q-position: [    0.0833333,    0.0000000,    0.0000000 ]
  weight: 8    
  band:
  - # 1
    frequency:     0.4406163181
  - # 2
    frequency:     0.4406163181
  - # 3
    frequency:     0.6518282916
  - # 4
    frequency:     1.3602962575
  - # 5
    frequency:     1.3602962575
  - # 6
    frequency:     3.2675919720

- q-position: [    0.1041667,    0.0000000,    0.0000000 ]
  weight: 8    
  band:
  - # 1
    frequency:     0.5352836617
  - # 2
    frequency:     0.5352836617
  - # 3
    frequency:     0.8023040755
  - # 4
    frequency:     1.5277321571
  - # 5
    frequency:     1.5277321571
  - # 6
    frequency:     3.2817961238

- q-position: [    0.1250000,    0.0000000,    0.0000000 ]
  weight: 8    
  band:
  - # 1
    frequency:     0.6260781284
  - # 2
    frequency:     0.6260781284
  - # 3
    frequency:     0.9452929393
  - # 4
    frequency:     1.6981614678
  - # 5
    frequency:     1.6981614678
  - # 6
    frequency:     3.2992392530

- q-position: [    0.1458333,    0.0000000,    0.0000000 ]
  weight: 8    
  band:
  - # 1
    frequency:     0.7135884925
  - # 2
    frequency:     0.7135884925
  - # 3
    frequency:     1.0800975631
  - # 4
    frequency:     1.8645447435
  - # 5
    frequency:     1.8645447435
  - # 6
    frequency:     3.3195722330

- q-position: [    0.1666667,    0.0000000,    0.0000000 ]
  weight: 8    
  band:
  - # 1
    frequency:     0.7980271429
  - # 2
    frequency:     0.7980271429
  - # 3
    frequency:     1.2064115471
  - # 4
    frequency:     2.0220017604
  - # 5
    frequency:     2.0220017604
  - # 6
    frequency:     3.3421271297

- q-position: [    0.1875000,    0.0000000,    0.0000000 ]
  weight: 8    
  band:
  - # 1
    frequency:     0.8794341407
  - # 2
    frequency:     0.8794341407
  - # 3
    frequency:     1.3243434343
  - # 4
    frequency:     2.1671721164
  - # 5
    frequency:     2.1671721164
  - # 6
    frequency:     3.3658903014

- q-position: [    0.2083333,    0.0000000,    0.0000000 ]
  weight: 8    
  band:
  - # 1
    frequency:     0.9577923954
  - # 2
    frequency:     0.9577923954
  - # 3
    frequency:     1.4344198056
  - # 4
    frequency:     2.2978049202
  - # 5
    frequency:     2.2978049202
  - # 6
    frequency:     3.3895191035

- q-position: [    0.2291667,    0.0000000,    0.0000000 ]
  weight: 8    
  band:
  - # 1
    frequency:     1.0330783311
  - # 2
    frequency:     1.0330783311
  - # 3
    frequency:     1.5375636222
  - # 4
    frequency:     2.4125082753
  - # 5
    frequency:     2.4125082753
  - # 6
    frequency:     3.4114003406

- q-position: [    0.2500000,    0.0000000,    0.0000000 ]
  weight: 8    
  band:
  - # 1
    frequency:     1.1052741053
  - # 2
    frequency:     1.1052741053
  - # 3
    frequency:     1.6350435540
  - # 4
    frequency:     2.5105940553
  - # 5
    frequency:     2.5105940553
  - # 6
    frequency:     3.4297424111

- q-position: [    0.2708333,    0.0000000,    0.0000000 ]
  weight: 8    
  band:
  - # 1
    frequency:     1.1743574227
  - # 2
    frequency:     1.1743574227
  - # 3
    frequency:     1.7283901598
  - # 4
    frequency:     2.5919760299
  - # 5
    frequency:     2.5919760299
  - # 6
    frequency:     3.4426898113

- q-position: [    0.2916667,    0.0000000,    0.0000000 ]
  weight: 8    
  band:
  - # 1
    frequency:     1.2402776629
  - # 2
    frequency:     1.2402776629
  - # 3
    frequency:     1.8192766072
  - # 4
    frequency:     2.6570967499
  - # 5
    frequency:     2.6570967499
  - # 6
    frequency:     3.4484484525

- q-position: [    0.3125000,    0.0000000,    0.0000000 ]
  weight: 8    
  band:
  - # 1
    frequency:     1.3029231830
  - # 2
    frequency:     1.3029231830
  - # 3
    frequency:     1.9093658187
  - # 4
    frequency:     2.7068692008
  - # 5
    frequency:     2.7068692008
  - # 6
    frequency:     3.4454123667

- q-position: [    0.3333333,    0.0000000,    0.0000000 ]
  weight: 8    
  band:
  - # 1
    frequency:     1.3620831312
  - # 2
    frequency:     1.3620831312
  - # 3
    frequency:     2.0001316869
  - # 4
    frequency:     2.7426250475
  - # 5
    frequency:     2.7426250475
  - # 6
    frequency:     3.4322860804

- q-position: [    0.3541667,    0.0000000,    0.0000000 ]
  weight: 8    
  band:
  - # 1
    frequency:     1.4174072653
  - # 2
    frequency:     1.4174072653
  - # 3
    frequency:     2.0926663908
  - # 4
    frequency:     2.7660638850
  - # 5
    frequency:     2.7660638850
  - # 6
    frequency:     3.4082022691

- q-position: [    0.3750000,    0.0000000,    0.0000000 ]
  weight: 8    
  band:
  - # 1
    frequency:     1.4683689674
  - # 2
    frequency:     1.4683689674
  - # 3
    frequency:     2.1874835969
  - # 4
    frequency:     2.7791980425
  - # 5
    frequency:     2.7791980425
  - # 6
    frequency:     3.3728430754

- q-position: [    0.3958333,    0.0000000,    0.0000000 ]
  weight: 8    
  band:
  - # 1
    frequency:     1.5142400167
  - # 2
    frequency:     1.5142400167
  - # 3
    frequency:     2.2843100309
  - # 4
    frequency:     2.7842854336
  - # 5
    frequency:     2.7842854336
  - # 6
    frequency:     3.3265914604

- q-position: [    0.4166667,    0.0000000,    0.0000000 ]
  weight: 8    
  band:
  - # 1
    frequency:     1.5540904401
  - # 2
    frequency:     1.5540904401
  - # 3
    frequency:     2.3818083088
  - # 4
    frequency:     2.7837392054
  - # 5
    frequency:     2.7837392054
  - # 6
    frequency:     3.2707829742

- q-position: [    0.4375000,    0.0000000,    0.0000000 ]
  weight: 8    
  band:
  - # 1
    frequency:     1.5868310525
  - # 2
    frequency:     1.5868310525
  - # 3
    frequency:     2.4770448472
  - # 4
    frequency:     2.7799994543
  - # 5
    frequency:     2.7799994543
  - # 6
    frequency:     3.2082477232

- q-position: [    0.4583333,    0.0000000,    0.0000000 ]
  weight: 8    
  band:
  - # 1
    frequency:     1.6113151971
  - # 2
    frequency:     1.6113151971
  - # 3
    frequency:     2.5641867542
  - # 4
    frequency:     2.7753539587
  - # 5
    frequency:     2.7753539587
  - # 6
    frequency:     3.1446521801

- q-position: [    0.4791667,    0.0000000,    0.0000000 ]
  weight: 8    
  band:
  - # 1
    frequency:     1.6265021339
  - # 2
    frequency:     1.6265021339
  - # 3
    frequency:     2.6314319349
  - # 4
    frequency:     2.7717092223
  - # 5
    frequency:     2.7717092223
  - # 6
    frequency:     3.0916230809

- q-position: [    0.5000000,    0.0000000,    0.0000000 ]
  weight: 4    
  band:
  - # 1
    frequency:     1.6316538274
  - # 2
    frequency:     1.6316538274
  - # 3
    frequency:     2.6584085278
  - # 4
    frequency:     2.7703436946
  - # 5
    frequency:     2.7703436946
  - # 6
    frequency:     3.0694012813

- q-position: [    0.0208333,    0.0208333,    0.0000000 ]
  weight: 6    
  band:
  - # 1
    frequency:     0.1285056535
  - # 2
    frequency:     0.1285056535
  - # 3
    frequency:     0.2062473803
  - # 4
    frequency:     0.9963442525
  - # 5
    frequency:     0.9963442525
  - # 6
    frequency:     3.2483456980

- q-position: [    0.0416667,    0.0208333,    0.0000000 ]
  weight: 24   
  band:
  - # 1
    frequency:     0.2134706447
  - # 2
    frequency:     0.2182222825
  - # 3
    frequency:     0.3314463780
  - # 4
    frequency:     1.0573608486
  - # 5
    frequency:     1.0633100645
  - # 6
    frequency:     3.2529640493

- q-position: [    0.0625000,    0.0208333,    0.0000000 ]
  weight: 24   
  band:
  - # 1
    frequency:     0.3117611646
  - # 2
    frequency:     0.3209154587
  - # 3
    frequency:     0.4764584780
  - # 4
    frequency:     1.1650444699
  - # 5
    frequency:     1.1805076329
  - # 6
    frequency:     3.2590485656

- q-position: [    0.0833333,    0.0208333,    0.0000000 ]
  weight: 24   
  band:
  - # 1
    frequency:     0.4080335177
  - # 2
    frequency:     0.4202049195
  - # 3
    frequency:     0.6254617382
  - # 4
    frequency:     1.3048830860
  - # 5
    frequency:     1.3288117679
  - # 6
    frequency:     3.2679383845

- q-position: [    0.1041667,    0.0208333,    0.0000000 ]
  weight: 24   
  band:
  - # 1
    frequency:     0.5001792780
  - # 2
    frequency:     0.5155115381
  - # 3
    frequency:     0.7723519689
  - # 4
    frequency:     1.4628607342
  - # 5
    frequency:     1.4935977275
  - # 6
    frequency:     3.2799405846

- q-position: [    0.1250000,    0.0208333,    0.0000000 ]
  weight: 24   
  band:
  - # 1
    frequency:     0.5884723992
  - # 2
    frequency:     0.6076884051
  - # 3
    frequency:     0.9141125978
  - # 4
    frequency:     1.6278575878
  - # 5
    frequency:     1.6639576953
  - # 6
    frequency:     3.2950942780

- q-position: [    0.1458333,    0.0208333,    0.0000000 ]
  weight: 24   
  band:
  - # 1
    frequency:     0.6733605646
  - # 2
    frequency:     0.6972038474
  - # 3
    frequency:     1.0490772069
  - # 4
    frequency:     1.7918214162
  - # 5
    frequency:     1.8321597975
  - # 6
    frequency:     3.3131959179

- q-position: [    0.1666667,    0.0208333,    0.0000000 ]
  weight: 24   
  band:
  - # 1
    frequency:     0.7551172245
  - # 2
    frequency:     0.7841396947
  - # 3
    frequency:     1.1763735974
  - # 4
    frequency:     1.9491090646
  - # 5
    frequency:     1.9928012993
  - # 6
    frequency:     3.3337420332

- q-position: [    0.1875000,    0.0208333,    0.0000000 ]
  weight: 24   
  band:
  - # 1
    frequency:     0.8338896758
  - # 2
    frequency:     0.8683807353
  - # 3
    frequency:     1.2957245118
  - # 4
    frequency:     2.0958158315
  - # 5
    frequency:     2.1421146327
  - # 6
    frequency:     3.3558901504

- q-position: [    0.2083333,    0.0208333,    0.0000000 ]
  weight: 24   
  band:
  - # 1
    frequency:     0.9097783874
  - # 2
    frequency:     0.9497438115
  - # 3
    frequency:     1.4073601597
  - # 4
    frequency:     2.2292989204
  - # 5
    frequency:     2.2775120603
  - # 6
    frequency:     3.3784589910

- q-position: [    0.2291667,    0.0208333,    0.0000000 ]
  weight: 24   
  band:
  - # 1
    frequency:     0.9828813781
  - # 2
    frequency:     1.0280413477
  - # 3
    frequency:     1.5119590252
  - # 4
    frequency:     2.3478727925
  - # 5
    frequency:     2.3973077250
  - # 6
    frequency:     3.3999709717

- q-position: [    0.2500000,    0.0208333,    0.0000000 ]
  weight: 24   
  band:
  - # 1
    frequency:     1.0533055288
  - # 2
    frequency:     1.1031033181
  - # 3
    frequency:     1.6105838230
  - # 4
    frequency:     2.4506170668
  - # 5
    frequency:     2.5005489502
  - # 6
    frequency:     3.4187312739

- q-position: [    0.2708333,    0.0208333,    0.0000000 ]
  weight: 24   
  band:
  - # 1
    frequency:     1.1211552939
  - # 2
    frequency:     1.1747744275
  - # 3
    frequency:     1.7045971780
  - # 4
    frequency:     2.5372506399
  - # 5
    frequency:     2.5869101984
  - # 6
    frequency:     3.4329331690

- q-position: [    0.2916667,    0.0208333,    0.0000000 ]
  weight: 24   
  band:
  - # 1
    frequency:     1.1865067558
  - # 2
    frequency:     1.2428951792
  - # 3
    frequency:     1.7955495706
  - # 4
    frequency:     2.6080427888
  - # 5
    frequency:     2.6566214468
  - # 6
    frequency:     3.4407782779

- q-position: [    0.3125000,    0.0208333,    0.0000000 ]
  weight: 24   
  band:
  - # 1
    frequency:     1.2493721771
  - # 2
    frequency:     1.3072712063
  - # 3
    frequency:     1.8850378195
  - # 4
    frequency:     2.6637440880
  - # 5
    frequency:     2.7104143692
  - # 6
    frequency:     3.4406020582

- q-position: [    0.3333333,    0.0208333,    0.0000000 ]
  weight: 24   
  band:
  - # 1
    frequency:     1.3096587224
  - # 2
    frequency:     1.3676342733
  - # 3
    frequency:     1.9745377133
  - # 4
    frequency:     2.7055272148
  - # 5
    frequency:     2.7494766659
  - # 6
    frequency:     3.4309979018

- q-position: [    0.3541667,    0.0208333,    0.0000000 ]
  weight: 24   
  band:
  - # 1
    frequency:     1.3671248091
  - # 2
    frequency:     1.4235996992
  - # 3
    frequency:     2.0652181913
  - # 4
    frequency:     2.7349315275
  - # 5
    frequency:     2.7754090174
  - # 6
    frequency:     3.4109374188

- q-position: [    0.3750000,    0.0208333,    0.0000000 ]
  weight: 24   
  band:
  - # 1
    frequency:     1.4213385379
  - # 2
    frequency:     1.4746274724
  - # 3
    frequency:     2.1577432614
  - # 4
    frequency:     2.7538065731
  - # 5
    frequency:     2.7901814561
  - # 6
    frequency:     3.3798910548

- q-position: [    0.3958333,    0.0208333,    0.0000000 ]
  weight: 24   
  band:
  - # 1
    frequency:     1.4716450424
  - # 2
    frequency:     1.5199969992
  - # 3
    frequency:     2.2520549573
  - # 4
    frequency:     2.7642487978
  - # 5
    frequency:     2.7960874576
  - # 6
    frequency:     3.3379663188

- q-position: [    0.4166667,    0.0208333,    0.0000000 ]
  weight: 24   
  band:
  - # 1
    frequency:     1.5171534317
  - # 2
    frequency:     1.5588080509
  - # 3
    frequency:     2.3470912089
  - # 4
    frequency:     2.7685229230
  - # 5
    frequency:     2.7956975734
  - # 6
    frequency:     3.2861119263

- q-position: [    0.4375000,    0.0208333,    0.0000000 ]
  weight: 24   
  band:
  - # 1
    frequency:     1.5567584675
  - # 2
    frequency:     1.5900228351
  - # 3
    frequency:     2.4402896404
  - # 4
    frequency:     2.7689556889
  - # 5
    frequency:     2.7918256877
  - # 6
    frequency:     3.2265178853

- q-position: [    0.4583333,    0.0208333,    0.0000000 ]
  weight: 24   
  band:
  - # 1
    frequency:     1.5892141520
  - # 2
    frequency:     1.6125634047
  - # 3
    frequency:     2.5264938328
  - # 4
    frequency:     2.7677880756
  - # 5
    frequency:     2.7875220307
  - # 6
    frequency:     3.1635663624

- q-position: [    0.4791667,    0.0208333,    0.0000000 ]
  weight: 24   
  band:
  - # 1
    frequency:     1.6132698032
  - # 2
    frequency:     1.6254677663
  - # 3
    frequency:     2.5957552794
  - # 4
    frequency:     2.7669788203
  - # 5
    frequency:     2.7857405038
  - # 6
    frequency:     3.1061812922

- q-position: [    0.5000000,    0.0208333,    0.0000000 ]
  weight: 24   
  band:
  - # 1
    frequency:     1.6278574832
  - # 2
    frequency:     1.6280812085
  - # 3
    frequency:     2.6325780486
  - # 4
    frequency:     2.7679735120
  - # 5
    frequency:     2.7860973531
  - # 6
    frequency:     3.0716245599

- q-position: [   -0.4791667,    0.0208333,    0.0000000 ]
  weight: 24   
  band:
  - # 1
    frequency:     1.6201091601
  - # 2
    frequency:     1.6322856505
  - # 3
    frequency:     2.6246792807
  - # 4
    frequency:     2.7714868611
  - # 5
    frequency:     2.7824922705
  - # 6
    frequency:     3.0789624658

- q-position: [   -0.4583333,    0.0208333,    0.0000000 ]
  weight: 24   
  band:
  - # 1
    frequency:     1.6019917490
  - # 2
    frequency:     1.6263692750
  - # 3
    frequency:     2.5754204833
  - # 4
    frequency:     2.7762223791
  - # 5
    frequency:     2.7773693106
  - # 6
    frequency:     3.1233881799

- q-position: [   -0.4375000,    0.0208333,    0.0000000 ]
  weight: 24   
  band:
  - # 1
    frequency:     1.5746683943
  - # 2
    frequency:     1.6104405950
  - # 3
    frequency:     2.4993240412
  - # 4
    frequency:     2.7727179001
  - # 5
    frequency:     2.7846138913
  - # 6
    frequency:     3.1840387433

- q-position: [   -0.4166667,    0.0208333,    0.0000000 ]
  weight: 24   
  band:
  - # 1
    frequency:     1.5393500516
  - # 2
    frequency:     1.5852389045
  - # 3
    frequency:     2.4101342576
  - # 4
    frequency:     2.7709918228
  - # 5
    frequency:     2.7915036271
  - # 6
    frequency:     3.2466370798

- q-position: [   -0.3958333,    0.0208333,    0.0000000 ]
  weight: 24   
  band:
  - # 1
    frequency:     1.4973677873
  - # 2
    frequency:     1.5517329721
  - # 3
    frequency:     2.3159123384
  - # 4
    frequency:     2.7681000715
  - # 5
    frequency:     2.7958433534
  - # 6
    frequency:     3.3041165835

- q-position: [   -0.3750000,    0.0208333,    0.0000000 ]
  weight: 24   
  band:
  - # 1
    frequency:     1.4499885931
  - # 2
    frequency:     1.5109454834
  - # 3
    frequency:     2.2208114846
  - # 4
    frequency:     2.7611994432
  - # 5
    frequency:     2.7952031603
  - # 6
    frequency:     3.3529662056

- q-position: [   -0.3541667,    0.0208333,    0.0000000 ]
  weight: 24   
  band:
  - # 1
    frequency:     1.3982911189
  - # 2
    frequency:     1.4638252151
  - # 3
    frequency:     2.1268531704
  - # 4
    frequency:     2.7476855625
  - # 5
    frequency:     2.7871239436
  - # 6
    frequency:     3.3914606220

- q-position: [   -0.3333333,    0.0208333,    0.0000000 ]
  weight: 24   
  band:
  - # 1
    frequency:     1.3431049805
  - # 2
    frequency:     1.4111784700
  - # 3
    frequency:     2.0347594655
  - # 4
    frequency:     2.7251882726
  - # 5
    frequency:     2.7692697877
  - # 6
    frequency:     3.4189509429

- q-position: [   -0.3125000,    0.0208333,    0.0000000 ]
  weight: 24   
  band:
  - # 1
    frequency:     1.2850007910
  - # 2
    frequency:     1.3536491437
  - # 3
    frequency:     1.9443505795
  - # 4
    frequency:     2.6915984734
  - # 5
    frequency:     2.7395345151
  - # 6
    frequency:     3.4355512708

- q-position: [   -0.2916667,    0.0208333,    0.0000000 ]
  weight: 24   
  band:
  - # 1
    frequency:     1.2243143125
  - # 2
    frequency:     1.2917300885
  - # 3
    frequency:     1.8547936895
  - # 4
    frequency:     2.6451100128
  - # 5
    frequency:     2.6961171591
  - # 6
    frequency:     3.4419646146

- q-position: [   -0.2708333,    0.0208333,    0.0000000 ]
  weight: 24   
  band:
  - # 1
    frequency:     1.1611899791
  - # 2
    frequency:     1.2257907223
  - # 3
    frequency:     1.7648095642
  - # 4
    frequency:     2.5842662361
  - # 5
    frequency:     2.6375797304
  - # 6
    frequency:     3.4393537804

- q-position: [   -0.2500000,    0.0208333,    0.0000000 ]
  weight: 24   
  band:
  - # 1
    frequency:     1.0956321908
  - # 2
    frequency:     1.1561106842
  - # 3
    frequency:     1.6728668953
  - # 4
    frequency:     2.5080088542
  - # 5
    frequency:     2.5628968216
  - # 6
    frequency:     3.4292219630

- q-position: [   -0.2291667,    0.0208333,    0.0000000 ]
  weight: 24   
  band:
  - # 1
    frequency:     1.0275559245
  - # 2
    frequency:     1.0829135080
  - # 3
    frequency:     1.5773645782
  - # 4
    frequency:     2.4157299909
  - # 5
    frequency:     2.4715036430
  - # 6
    frequency:     3.4132909787

- q-position: [   -0.2083333,    0.0208333,    0.0000000 ]
  weight: 24   
  band:
  - # 1
    frequency:     0.9568309797
  - # 2
    frequency:     1.0063968620
  - # 3
    frequency:     1.4767933702
  - # 4
    frequency:     2.3073306233
  - # 5
    frequency:     2.3633481048
  - # 6
    frequency:     3.3933755296

- q-position: [   -0.1875000,    0.0208333,    0.0000000 ]
  weight: 24   
  band:
  - # 1
    frequency:     0.8833159748
  - # 2
    frequency:     0.9267569184
  - # 3
    frequency:     1.3698693296
  - # 4
    frequency:     2.1832921222
  - # 5
    frequency:     2.2389538854
  - # 6
    frequency:     3.3712576100

- q-position: [   -0.1666667,    0.0208333,    0.0000000 ]
  weight: 24   
  band:
  - # 1
    frequency:     0.8068783958
  - # 2
    frequency:     0.8442039886
  - # 3
    frequency:     1.2556363590
  - # 4
    frequency:     2.0447733316
  - # 5
    frequency:     2.0995055149
  - # 6
    frequency:     3.3485690136

- q-position: [   -0.1458333,    0.0208333,    0.0000000 ]
  weight: 24   
  band:
  - # 1
    frequency:     0.7273951950
  - # 2
    frequency:     0.7589645281
  - # 3
    frequency:     1.1335406899
  - # 4
    frequency:     1.8937550126
  - # 5
    frequency:     1.9469744206
  - # 6
    frequency:     3.3266924544

- q-position: [   -0.1250000,    0.0208333,    0.0000000 ]
  weight: 24   
  band:
  - # 1
    frequency:     0.6447250620
  - # 2
    frequency:     0.6712605733
  - # 3
    frequency:     1.0034853734
  - # 4
    frequency:     1.7332684238
  - # 5
    frequency:     1.7843182659
  - # 6
    frequency:     3.3066923786

- q-position: [   -0.1041667,    0.0208333,    0.0000000 ]
  weight: 24   
  band:
  - # 1
    frequency:     0.5586429014
  - # 2
    frequency:     0.5812526137
  - # 3
    frequency:     0.8658799919
  - # 4
    frequency:     1.5677650495
  - # 5
    frequency:     1.6158049515
  - # 6
    frequency:     3.2892839570

- q-position: [   -0.0833333,    0.0208333,    0.0000000 ]
  weight: 24   
  band:
  - # 1
    frequency:     0.4687522601
  - # 2
    frequency:     0.4889368371
  - # 3
    frequency:     0.7217177715
  - # 4
    frequency:     1.4036954372
  - # 5
    frequency:     1.4475263120
  - # 6
    frequency:     3.2748420477

- q-position: [   -0.0625000,    0.0208333,    0.0000000 ]
  weight: 24   
  band:
  - # 1
    frequency:     0.3745395709
  - # 2
    frequency:     0.3940590991
  - # 3
    frequency:     0.5727663049
  - # 4
    frequency:     1.2503011345
  - # 5
    frequency:     1.2881175812
  - # 6
    frequency:     3.2634397203

- q-position: [   -0.0416667,    0.0208333,    0.0000000 ]
  weight: 24   
  band:
  - # 1
    frequency:     0.2763632668
  - # 2
    frequency:     0.2964638352
  - # 3
    frequency:     0.4221764993
  - # 4
    frequency:     1.1203271316
  - # 5
    frequency:     1.1494108746
  - # 6
    frequency:     3.2548807917

- q-position: [   -0.0208333,    0.0208333,    0.0000000 ]
  weight: 12   
  band:
  - # 1
    frequency:     0.1807779908
  - # 2
    frequency:     0.1987197965
  - # 3
    frequency:     0.2770568325
  - # 4
    frequency:     1.0297741478
  - # 5
    frequency:     1.0460020913
  - # 6
    frequency:     3.2486385855

- q-position: [    0.0416667,    0.0416667,    0.0000000 ]
  weight: 6    
  band:
  - # 1
    frequency:     0.2473827375
  - # 2
    frequency:     0.2473827375
  - # 3
    frequency:     0.4113510209
  - # 4
    frequency:     1.0900808420
  - # 5
    frequency:     1.0900808420
  - # 6
    frequency:     3.2624774481

- q-position: [    0.0625000,    0.0416667,    0.0000000 ]
  weight: 24   
  band:
  - # 1
    frequency:     0.3156896432
  - # 2
    frequency:     0.3194587635
  - # 3
    frequency:     0.5251280947
  - # 4
    frequency:     1.1702864784
  - # 5
    frequency:     1.1773205415
  - # 6
    frequency:     3.2700623276

- q-position: [    0.0833333,    0.0416667,    0.0000000 ]
  weight: 24   
  band:
  - # 1
    frequency:     0.3960009520
  - # 2
    frequency:     0.4066320906
  - # 3
    frequency:     0.6525911546
  - # 4
    frequency:     1.2865963757
  - # 5
    frequency:     1.3082168828
  - # 6
    frequency:     3.2771217858

- q-position: [    0.1041667,    0.0416667,    0.0000000 ]
  weight: 24   
  band:
  - # 1
    frequency:     0.4784334524
  - # 2
    frequency:     0.4966136781
  - # 3
    frequency:     0.7851710264
  - # 4
    frequency:     1.4261755059
  - # 5
    frequency:     1.4630637957
  - # 6
    frequency:     3.2855959921

- q-position: [    0.1250000,    0.0416667,    0.0000000 ]
  weight: 24   
  band:
  - # 1
    frequency:     0.5597359700
  - # 2
    frequency:     0.5862421497
  - # 3
    frequency:     0.9177587046
  - # 4
    frequency:     1.5776866892
  - # 5
    frequency:     1.6281122023
  - # 6
    frequency:     3.2963600932

- q-position: [    0.1458333,    0.0416667,    0.0000000 ]
  weight: 24   
  band:
  - # 1
    frequency:     0.6389586126
  - # 2
    frequency:     0.6747317581
  - # 3
    frequency:     1.0470631475
  - # 4
    frequency:     1.7323240247
  - # 5
    frequency:     1.7941621441
  - # 6
    frequency:     3.3096835804

- q-position: [    0.1666667,    0.0416667,    0.0000000 ]
  weight: 24   
  band:
  - # 1
    frequency:     0.7158479297
  - # 2
    frequency:     0.7616777084
  - # 3
    frequency:     1.1710641585
  - # 4
    frequency:     1.8836574847
  - # 5
    frequency:     1.9549611061
  - # 6
    frequency:     3.3254222403

- q-position: [    0.1875000,    0.0416667,    0.0000000 ]
  weight: 24   
  band:
  - # 1
    frequency:     0.7903682648
  - # 2
    frequency:     0.8466835023
  - # 3
    frequency:     1.2886732022
  - # 4
    frequency:     2.0271279193
  - # 5
    frequency:     2.1061759336
  - # 6
    frequency:     3.3430565288

- q-position: [    0.2083333,    0.0416667,    0.0000000 ]
  weight: 24   
  band:
  - # 1
    frequency:     0.8625776448
  - # 2
    frequency:     0.9293489137
  - # 3
    frequency:     1.3995155859
  - # 4
    frequency:     2.1595830926
  - # 5
    frequency:     2.2447870995
  - # 6
    frequency:     3.3617053823

- q-position: [    0.2291667,    0.0416667,    0.0000000 ]
  weight: 24   
  band:
  - # 1
    frequency:     0.9325932961
  - # 2
    frequency:     1.0093023789
  - # 3
    frequency:     1.5037862562
  - # 4
    frequency:     2.2789417050
  - # 5
    frequency:     2.3687404571
  - # 6
    frequency:     3.3801608603

- q-position: [    0.2500000,    0.0416667,    0.0000000 ]
  weight: 24   
  band:
  - # 1
    frequency:     1.0005702227
  - # 2
    frequency:     1.0862192231
  - # 3
    frequency:     1.6021382118
  - # 4
    frequency:     2.3839664741
  - # 5
    frequency:     2.4767475505
  - # 6
    frequency:     3.3969531638

- q-position: [    0.2708333,    0.0416667,    0.0000000 ]
  weight: 24   
  band:
  - # 1
    frequency:     1.0666745640
  - # 2
    frequency:     1.1598202037
  - # 3
    frequency:     1.6955769267
  - # 4
    frequency:     2.4741102211
  - # 5
    frequency:     2.5681706653
  - # 6
    frequency:     3.4104413569

- q-position: [    0.2916667,    0.0416667,    0.0000000 ]
  weight: 24   
  band:
  - # 1
    frequency:     1.1310493963
  - # 2
    frequency:     1.2298515596
  - # 3
    frequency:     1.7853460501
  - # 4
    frequency:     2.5494062522
  - # 5
    frequency:     2.6429555664
  - # 6
    frequency:     3.4189209583

- q-position: [    0.3125000,    0.0416667,    0.0000000 ]
  weight: 24   
  band:
  - # 1
    frequency:     1.1937745097
  - # 2
    frequency:     1.2960476971
  - # 3
    frequency:     1.8727974550
  - # 4
    frequency:     2.6103841933
  - # 5
    frequency:     2.7015891086
  - # 6
    frequency:     3.4207406612

- q-position: [    0.3333333,    0.0416667,    0.0000000 ]
  weight: 24   
  band:
  - # 1
    frequency:     1.2548225357
  - # 2
    frequency:     1.3580796888
  - # 3
    frequency:     1.9592430133
  - # 4
    frequency:     2.6579997997
  - # 5
    frequency:     2.7450672446
  - # 6
    frequency:     3.4144232962

- q-position: [    0.3541667,    0.0416667,    0.0000000 ]
  weight: 24   
  band:
  - # 1
    frequency:     1.3140141868
  - # 2
    frequency:     1.4154978286
  - # 3
    frequency:     2.0457863194
  - # 4
    frequency:     2.6935718120
  - # 5
    frequency:     2.7748657613
  - # 6
    frequency:     3.3987886994

- q-position: [    0.3750000,    0.0416667,    0.0000000 ]
  weight: 24   
  band:
  - # 1
    frequency:     1.3709761088
  - # 2
    frequency:     1.4676821515
  - # 3
    frequency:     2.1331293229
  - # 4
    frequency:     2.7187211578
  - # 5
    frequency:     2.7929129530
  - # 6
    frequency:     3.3730790512

- q-position: [    0.3958333,    0.0416667,    0.0000000 ]
  weight: 24   
  band:
  - # 1
    frequency:     1.4251064094
  - # 2
    frequency:     1.5138173781
  - # 3
    frequency:     2.2213387480
  - # 4
    frequency:     2.7353080436
  - # 5
    frequency:     2.8015707752
  - # 6
    frequency:     3.3370944672

- q-position: [    0.4166667,    0.0416667,    0.0000000 ]
  weight: 24   
  band:
  - # 1
    frequency:     1.4755556274
  - # 2
    frequency:     1.5529065637
  - # 3
    frequency:     2.3095307583
  - # 4
    frequency:     2.7453608735
  - # 5
    frequency:     2.8036403671
  - # 6
    frequency:     3.2913663296

- q-position: [    0.4375000,    0.0416667,    0.0000000 ]
  weight: 24   
  band:
  - # 1
    frequency:     1.5212345853
  - # 2
    frequency:     1.5838331028
  - # 3
    frequency:     2.3953710921
  - # 4
    frequency:     2.7509879207
  - # 5
    frequency:     2.8024162853
  - # 6
    frequency:     3.2374478548

- q-position: [    0.4583333,    0.0416667,    0.0000000 ]
  weight: 24   
  band:
  - # 1