nqpoint: 404    
npath: 4      
natom: 2      
phonon:
- q-position: [    0.0000000,    0.0000000,    0.0000000 ]
  distance:    0.0000000
  band:
  - # 1
    frequency:   -0.0023038395
  - # 2
    frequency:   -0.0023038395
  - # 3
    frequency:   -0.0016954589
  - # 4
    frequency:    0.7745436142
  - # 5
    frequency:    0.7745436142
  - # 6
    frequency:    3.7436652691

- q-position: [    0.0050000,    0.0025000,    0.0075000 ]
  distance:    0.0018068
  band:
  - # 1
    frequency:    0.0395786950
  - # 2
    frequency:    0.0401539267
  - # 3
    frequency:    0.0592556222
  - # 4
    frequency:    0.7789956257
  - # 5
    frequency:    0.7797919045
  - # 6
    frequency:    3.7444316514

- q-position: [    0.0100000,    0.0050000,    0.0150000 ]
  distance:    0.0036137
  band:
  - # 1
    frequency:    0.0786291859
  - # 2
    frequency:    0.0799826951
  - # 3
    frequency:    0.1184818674
  - # 4
    frequency:    0.7922017182
  - # 5
    frequency:    0.7953525857
  - # 6
    frequency:    3.7467231512

- q-position: [    0.0150000,    0.0075000,    0.0225000 ]
  distance:    0.0054205
  band:
  - # 1
    frequency:    0.1165121860
  - # 2
    frequency:    0.1190008015
  - # 3
    frequency:    0.1775702412
  - # 4
    frequency:    0.8137269373
  - # 5
    frequency:    0.8206897073
  - # 6
    frequency:    3.7505169293

- q-position: [    0.0200000,    0.0100000,    0.0300000 ]
  distance:    0.0072273
  band:
  - # 1
    frequency:    0.1529125694
  - # 2
    frequency:    0.1569611837
  - # 3
    frequency:    0.2364656984
  - # 4
    frequency:    0.8428940516
  - # 5
    frequency:    0.8549664269
  - # 6
    frequency:    3.7557752604

- q-position: [    0.0250000,    0.0125000,    0.0375000 ]
  distance:    0.0090342
  band:
  - # 1
    frequency:    0.1877022392
  - # 2
    frequency:    0.1937184397
  - # 3
    frequency:    0.2951117236
  - # 4
    frequency:    0.8788478702
  - # 5
    frequency:    0.8971278910
  - # 6
    frequency:    3.7624460347

- q-position: [    0.0300000,    0.0150000,    0.0450000 ]
  distance:    0.0108410
  band:
  - # 1
    frequency:    0.2209162592
  - # 2
    frequency:    0.2292273863
  - # 3
    frequency:    0.3534543257
  - # 4
    frequency:    0.9206301720
  - # 5
    frequency:    0.9460030431
  - # 6
    frequency:    3.7704634434

- q-position: [    0.0350000,    0.0175000,    0.0525000 ]
  distance:    0.0126478
  band:
  - # 1
    frequency:    0.2526940045
  - # 2
    frequency:    0.2635160587
  - # 3
    frequency:    0.4114423817
  - # 4
    frequency:    0.9672520267
  - # 5
    frequency:    1.0004037492
  - # 6
    frequency:    3.7797488338

- q-position: [    0.0400000,    0.0200000,    0.0600000 ]
  distance:    0.0144547
  band:
  - # 1
    frequency:    0.2832198123
  - # 2
    frequency:    0.2966537836
  - # 3
    frequency:    0.4690275988
  - # 4
    frequency:    1.0177525371
  - # 5
    frequency:    1.0592021267
  - # 6
    frequency:    3.7902117148

- q-position: [    0.0450000,    0.0225000,    0.0675000 ]
  distance:    0.0162615
  band:
  - # 1
    frequency:    0.3126793243
  - # 2
    frequency:    0.3287242393
  - # 3
    frequency:    0.5261645088
  - # 4
    frequency:    1.0712386342
  - # 5
    frequency:    1.1213778936
  - # 6
    frequency:    3.8017508909

- q-position: [    0.0500000,    0.0250000,    0.0750000 ]
  distance:    0.0180683
  band:
  - # 1
    frequency:    0.3412348350
  - # 2
    frequency:    0.3598074074
  - # 3
    frequency:    0.5828105335
  - # 4
    frequency:    1.1269063364
  - # 5
    frequency:    1.1860383434
  - # 6
    frequency:    3.8142557018

- q-position: [    0.0550000,    0.0275000,    0.0825000 ]
  distance:    0.0198752
  band:
  - # 1
    frequency:    0.3690157446
  - # 2
    frequency:    0.3899701016
  - # 3
    frequency:    0.6389260795
  - # 4
    frequency:    1.1840474847
  - # 5
    frequency:    1.2524190004
  - # 6
    frequency:    3.8276073439

- q-position: [    0.0600000,    0.0300000,    0.0900000 ]
  distance:    0.0216820
  band:
  - # 1
    frequency:    0.3961183514
  - # 2
    frequency:    0.4192628231
  - # 3
    frequency:    0.6944746143
  - # 4
    frequency:    1.2420469832
  - # 5
    frequency:    1.3198733967
  - # 6
    frequency:    3.8416802485

- q-position: [    0.0650000,    0.0325000,    0.0975000 ]
  distance:    0.0234889
  band:
  - # 1
    frequency:    0.4226102134
  - # 2
    frequency:    0.4477204465
  - # 3
    frequency:    0.7494226888
  - # 4
    frequency:    1.3003749184
  - # 5
    frequency:    1.3878583097
  - # 6
    frequency:    3.8563434921

- q-position: [    0.0700000,    0.0350000,    0.1050000 ]
  distance:    0.0252957
  band:
  - # 1
    frequency:    0.4485360325
  - # 2
    frequency:    0.4753647850
  - # 3
    frequency:    0.8037398905
  - # 4
    frequency:    1.3585766576
  - # 5
    frequency:    1.4559183295
  - # 6
    frequency:    3.8714622173

- q-position: [    0.0750000,    0.0375000,    0.1125000 ]
  distance:    0.0271025
  band:
  - # 1
    frequency:    0.4739234533
  - # 2
    frequency:    0.5022077793
  - # 3
    frequency:    0.8573987233
  - # 4
    frequency:    1.4162628077
  - # 5
    frequency:    1.5236717090
  - # 6
    frequency:    3.8868990416

- q-position: [    0.0800000,    0.0400000,    0.1200000 ]
  distance:    0.0289094
  band:
  - # 1
    frequency:    0.4987880958
  - # 2
    frequency:    0.5282546237
  - # 3
    frequency:    0.9103744144
  - # 4
    frequency:    1.4731000064
  - # 5
    frequency:    1.5907982488
  - # 6
    frequency:    3.9025154351

- q-position: [    0.0850000,    0.0425000,    0.1275000 ]
  distance:    0.0307162
  band:
  - # 1
    frequency:    0.5231376432
  - # 2
    frequency:    0.5535065142
  - # 3
    frequency:    0.9626446579
  - # 4
    frequency:    1.5288029416
  - # 5
    frequency:    1.6570293179
  - # 6
    frequency:    3.9181730510

- q-position: [    0.0900000,    0.0450000,    0.1350000 ]
  distance:    0.0325230
  band:
  - # 1
    frequency:    0.5469750400
  - # 2
    frequency:    0.5779629217
  - # 3
    frequency:    1.0141893016
  - # 4
    frequency:    1.5831276643
  - # 5
    frequency:    1.7221398138
  - # 6
    frequency:    3.9337349932

- q-position: [    0.0950000,    0.0475000,    0.1425000 ]
  distance:    0.0343299
  band:
  - # 1
    frequency:    0.5703009379
  - # 2
    frequency:    0.6016233987
  - # 3
    frequency:    1.0649899893
  - # 4
    frequency:    1.6358660998
  - # 5
    frequency:    1.7859417592
  - # 6
    frequency:    3.9490670113

- q-position: [    0.1000000,    0.0500000,    0.1500000 ]
  distance:    0.0361367
  band:
  - # 1
    frequency:    0.5931155389
  - # 2
    frequency:    0.6244889736
  - # 3
    frequency:    1.1150297682
  - # 4
    frequency:    1.6868415947
  - # 5
    frequency:    1.8482792215
  - # 6
    frequency:    3.9640386109

- q-position: [    0.1050000,    0.0525000,    0.1575000 ]
  distance:    0.0379435
  band:
  - # 1
    frequency:    0.6154199686
  - # 2
    frequency:    0.6465631984
  - # 3
    frequency:    1.1642926722
  - # 4
    frequency:    1.7359053263
  - # 5
    frequency:    1.9090242763
  - # 6
    frequency:    3.9785240764

- q-position: [    0.1100000,    0.0550000,    0.1650000 ]
  distance:    0.0397504
  band:
  - # 1
    frequency:    0.6372172845
  - # 2
    frequency:    0.6678529127
  - # 3
    frequency:    1.2127632939
  - # 4
    frequency:    1.7829334079
  - # 5
    frequency:    1.9680737757
  - # 6
    frequency:    3.9924033983

- q-position: [    0.1150000,    0.0575000,    0.1725000 ]
  distance:    0.0415572
  band:
  - # 1
    frequency:    0.6585131991
  - # 2
    frequency:    0.6883687746
  - # 3
    frequency:    1.2604263545
  - # 4
    frequency:    1.8278245501
  - # 5
    frequency:    2.0253467326
  - # 6
    frequency:    4.0055631047

- q-position: [    0.1200000,    0.0600000,    0.1800000 ]
  distance:    0.0433640
  band:
  - # 1
    frequency:    0.6793165751
  - # 2
    frequency:    0.7081256017
  - # 3
    frequency:    1.3072662840
  - # 4
    frequency:    1.8704981558
  - # 5
    frequency:    2.0807821644
  - # 6
    frequency:    4.0178969961

- q-position: [    0.1250000,    0.0625000,    0.1875000 ]
  distance:    0.0451709
  band:
  - # 1
    frequency:    0.6996397334
  - # 2
    frequency:    0.7271425533
  - # 3
    frequency:    1.3532668220
  - # 4
    frequency:    1.9108927534
  - # 5
    frequency:    2.1343372775
  - # 6
    frequency:    4.0293067840

- q-position: [    0.1300000,    0.0650000,    0.1950000 ]
  distance:    0.0469777
  band:
  - # 1
    frequency:    0.7194986017
  - # 2
    frequency:    0.7454431767
  - # 3
    frequency:    1.3984106497
  - # 4
    frequency:    1.9489646868
  - # 5
    frequency:    2.1859858963
  - # 6
    frequency:    4.0397026349

- q-position: [    0.1350000,    0.0675000,    0.2025000 ]
  distance:    0.0487845
  band:
  - # 1
    frequency:    0.7389127222
  - # 2
    frequency:    0.7630553360
  - # 3
    frequency:    1.4426790633
  - # 4
    frequency:    1.9846870010
  - # 5
    frequency:    2.2357170627
  - # 6
    frequency:    4.0490036238

- q-position: [    0.1400000,    0.0700000,    0.2100000 ]
  distance:    0.0505914
  band:
  - # 1
    frequency:    0.7579051309
  - # 2
    frequency:    0.7800110347
  - # 3
    frequency:    1.4860516975
  - # 4
    frequency:    2.0180484710
  - # 5
    frequency:    2.2835337474
  - # 6
    frequency:    4.0571380992

- q-position: [    0.1450000,    0.0725000,    0.2175000 ]
  distance:    0.0523982
  band:
  - # 1
    frequency:    0.7765021185
  - # 2
    frequency:    0.7963461424
  - # 3
    frequency:    1.5285063085
  - # 4
    frequency:    2.0490527341
  - # 5
    frequency:    2.3294516278
  - # 6
    frequency:    4.0640439641

- q-position: [    0.1500000,    0.0750000,    0.2250000 ]
  distance:    0.0542050
  band:
  - # 1
    frequency:    0.7947328785
  - # 2
    frequency:    0.8121000319
  - # 3
    frequency:    1.5700186241
  - # 4
    frequency:    2.0777174933
  - # 5
    frequency:    2.3734978971
  - # 6
    frequency:    4.0696688774

- q-position: [    0.1550000,    0.0775000,    0.2325000 ]
  distance:    0.0560119
  band:
  - # 1
    frequency:    0.8126290519
  - # 2
    frequency:    0.8273151341
  - # 3
    frequency:    1.6105622657
  - # 4
    frequency:    2.1040737650
  - # 5
    frequency:    2.4157100769
  - # 6
    frequency:    4.0739703787

- q-position: [    0.1600000,    0.0800000,    0.2400000 ]
  distance:    0.0578187
  band:
  - # 1
    frequency:    0.8302241735
  - # 2
    frequency:    0.8420364149
  - # 3
    frequency:    1.6501087483
  - # 4
    frequency:    2.1281651518
  - # 5
    frequency:    2.4561348163
  - # 6
    frequency:    4.0769159399

- q-position: [    0.1650000,    0.0825000,    0.2475000 ]
  distance:    0.0596255
  band:
  - # 1
    frequency:    0.8475530321
  - # 2
    frequency:    0.8563107832
  - # 3
    frequency:    1.6886275600
  - # 4
    frequency:    2.1500471206
  - # 5
    frequency:    2.4948266612
  - # 6
    frequency:    4.0784829489

- q-position: [    0.1700000,    0.0850000,    0.2550000 ]
  distance:    0.0614324
  band:
  - # 1
    frequency:    0.8646509546
  - # 2
    frequency:    0.8701864348
  - # 3
    frequency:    1.7260863210
  - # 4
    frequency:    2.1697862755
  - # 5
    frequency:    2.5318467906
  - # 6
    frequency:    4.0786586254

- q-position: [    0.1750000,    0.0875000,    0.2625000 ]
  distance:    0.0632392
  band:
  - # 1
    frequency:    0.8815530287
  - # 2
    frequency:    0.8837121437
  - # 3
    frequency:    1.7624510191
  - # 4
    frequency:    2.1874596113
  - # 5
    frequency:    2.5672617161
  - # 6
    frequency:    4.0774398738

- q-position: [    0.1800000,    0.0900000,    0.2700000 ]
  distance:    0.0650461
  band:
  - # 1
    frequency:    0.8969365095
  - # 2
    frequency:    0.8982932823
  - # 3
    frequency:    1.7976863165
  - # 4
    frequency:    2.2031537412
  - # 5
    frequency:    2.6011419508
  - # 6
    frequency:    4.0748330733

- q-position: [    0.1850000,    0.0925000,    0.2775000 ]
  distance:    0.0668529
  band:
  - # 1
    frequency:    0.9099071762
  - # 2
    frequency:    0.9149038385
  - # 3
    frequency:    1.8317559170
  - # 4
    frequency:    2.2169640895
  - # 5
    frequency:    2.6335606578
  - # 6
    frequency:    4.0708538077

- q-position: [    0.1900000,    0.0950000,    0.2850000 ]
  distance:    0.0686597
  band:
  - # 1
    frequency:    0.9226700353
  - # 2
    frequency:    0.9314140682
  - # 3
    frequency:    1.8646229822
  - # 4
    frequency:    2.2289940448
  - # 5
    frequency:    2.6645922943
  - # 6
    frequency:    4.0655265346

- q-position: [    0.1950000,    0.0975000,    0.2925000 ]
  distance:    0.0704666
  band:
  - # 1
    frequency:    0.9352684312
  - # 2
    frequency:    0.9478497643
  - # 3
    frequency:    1.8962505802
  - # 4
    frequency:    2.2393540687
  - # 5
    frequency:    2.6943112702
  - # 6
    frequency:    4.0588841960

- q-position: [    0.2000000,    0.1000000,    0.3000000 ]
  distance:    0.0722734
  band:
  - # 1
    frequency:    0.9477423873
  - # 2
    frequency:    0.9642323616
  - # 3
    frequency:    1.9266021486
  - # 4
    frequency:    2.2481607581
  - # 5
    frequency:    2.7227906480
  - # 6
    frequency:    4.0509677694

- q-position: [    0.2050000,    0.1025000,    0.3075000 ]
  distance:    0.0740802
  band:
  - # 1
    frequency:    0.9601278721
  - # 2
    frequency:    0.9805782269
  - # 3
    frequency:    1.9556419527
  - # 4
    frequency:    2.2555358581
  - # 5
    frequency:    2.7501009078
  - # 6
    frequency:    4.0418257608

- q-position: [    0.2100000,    0.1050000,    0.3150000 ]
  distance:    0.0758871
  band:
  - # 1
    frequency:    0.9724561265
  - # 2
    frequency:    0.9968980414
  - # 3
    frequency:    1.9833355207
  - # 4
    frequency:    2.2616052261
  - # 5
    frequency:    2.7763088047
  - # 6
    frequency:    4.0315136404

- q-position: [    0.2150000,    0.1075000,    0.3225000 ]
  distance:    0.0776939
  band:
  - # 1
    frequency:    0.9847530715
  - # 2
    frequency:    1.0131962983
  - # 3
    frequency:    2.0096500380
  - # 4
    frequency:    2.2664977486
  - # 5
    frequency:    2.8014763444
  - # 6
    frequency:    4.0200932226

- q-position: [    0.2200000,    0.1100000,    0.3300000 ]
  distance:    0.0795007
  band:
  - # 1
    frequency:    0.9970388161
  - # 2
    frequency:    1.0294709301
  - # 3
    frequency:    2.0345546909
  - # 4
    frequency:    2.2703442122
  - # 5
    frequency:    2.8256598924
  - # 6
    frequency:    4.0076319957

- q-position: [    0.2250000,    0.1125000,    0.3375000 ]
  distance:    0.0813076
  band:
  - # 1
    frequency:    1.0093272832
  - # 2
    frequency:    1.0457130824
  - # 3
    frequency:    2.0580209520
  - # 4
    frequency:    2.2732761338
  - # 5
    frequency:    2.8489094314
  - # 6
    frequency:    3.9942024049

- q-position: [    0.2300000,    0.1150000,    0.3450000 ]
  distance:    0.0831144
  band:
  - # 1
    frequency:    1.0216259672
  - # 2
    frequency:    1.0619070403
  - # 3
    frequency:    2.0800228130
  - # 4
    frequency:    2.2754245573
  - # 5
    frequency:    2.8712679628
  - # 6
    frequency:    3.9798811019

- q-position: [    0.2350000,    0.1175000,    0.3525000 ]
  distance:    0.0849212
  band:
  - # 1
    frequency:    1.0339358356
  - # 2
    frequency:    1.0780303124
  - # 3
    frequency:    2.1005369749
  - # 4
    frequency:    2.2769188231
  - # 5
    frequency:    2.8927710424
  - # 6
    frequency:    3.9647481720

- q-position: [    0.2400000,    0.1200000,    0.3600000 ]
  distance:    0.0867281
  band:
  - # 1
    frequency:    1.0462513813
  - # 2
    frequency:    1.0940538703
  - # 3
    frequency:    2.1195430167
  - # 4
    frequency:    2.2778853232
  - # 5
    frequency:    2.9134464193
  - # 6
    frequency:    3.9488863611

- q-position: [    0.2450000,    0.1225000,    0.3675000 ]
  distance:    0.0885349
  band:
  - # 1
    frequency:    1.0585608273
  - # 2
    frequency:    1.1099425375
  - # 3
    frequency:    2.1370235714
  - # 4
    frequency:    2.2784462537
  - # 5
    frequency:    2.9333137397
  - # 6
    frequency:    3.9323803293

- q-position: [    0.2500000,    0.1250000,    0.3750000 ]
  distance:    0.0903417
  band:
  - # 1
    frequency:    1.0708464818
  - # 2
    frequency:    1.1256555158
  - # 3
    frequency:    2.1529645381
  - # 4
    frequency:    2.2787183818
  - # 5
    frequency:    2.9523842606
  - # 6
    frequency:    3.9153159646

- q-position: [    0.2550000,    0.1275000,    0.3825000 ]
  distance:    0.0921486
  band:
  - # 1
    frequency:    1.0830852344
  - # 2
    frequency:    1.1411470348
  - # 3
    frequency:    2.1673553638
  - # 4
    frequency:    2.2788118446
  - # 5
    frequency:    2.9706605115
  - # 6
    frequency:    3.8977798003

- q-position: [    0.2600000,    0.1300000,    0.3900000 ]
  distance:    0.0939554
  band:
  - # 1
    frequency:    1.0952491795
  - # 2
    frequency:    1.1563671065
  - # 3
    frequency:    2.1801894172
  - # 4
    frequency:    2.2788290020
  - # 5
    frequency:    2.9881358396
  - # 6
    frequency:    3.8798585878

- q-position: [    0.2650000,    0.1325000,    0.3975000 ]
  distance:    0.0957622
  band:
  - # 1
    frequency:    1.1073063486
  - # 2
    frequency:    1.1712623659
  - # 3
    frequency:    2.1914644711
  - # 4
    frequency:    2.2788633668
  - # 5
    frequency:    3.0047937747
  - # 6
    frequency:    3.8616390794

- q-position: [    0.2700000,    0.1350000,    0.4050000 ]
  distance:    0.0975691
  band:
  - # 1
    frequency:    1.1192215281
  - # 2
    frequency:    1.1857769766
  - # 3
    frequency:    2.2011832912
  - # 4
    frequency:    2.2789986363
  - # 5
    frequency:    3.0206071611
  - # 6
    frequency:    3.8432080829

- q-position: [    0.2750000,    0.1375000,    0.4125000 ]
  distance:    0.0993759
  band:
  - # 1
    frequency:    1.1309571345
  - # 2
    frequency:    1.1998535814
  - # 3
    frequency:    2.2093543139
  - # 4
    frequency:    2.2793078528
  - # 5
    frequency:    3.0355370202
  - # 6
    frequency:    3.8246528447

- q-position: [    0.2800000,    0.1400000,    0.4200000 ]
  distance:    0.1011828
  band:
  - # 1
    frequency:    1.1424741187
  - # 2
    frequency:    1.2134342797
  - # 3
    frequency:    2.2159923744
  - # 4
    frequency:    2.2798527191
  - # 5
    frequency:    3.0495311391
  - # 6
    frequency:    3.8060618041

- q-position: [    0.2850000,    0.1425000,    0.4275000 ]
  distance:    0.1029896
  band:
  - # 1
    frequency:    1.1537328688
  - # 2
    frequency:    1.2264616132
  - # 3
    frequency:    2.2211194344
  - # 4
    frequency:    2.2806830910
  - # 5
    frequency:    3.0625224139
  - # 6
    frequency:    3.7875257400

- q-position: [    0.2900000,    0.1450000,    0.4350000 ]
  distance:    0.1047964
  band:
  - # 1
    frequency:    1.1646940799
  - # 2
    frequency:    1.2388795466
  - # 3
    frequency:    2.2247652402
  - # 4
    frequency:    2.2818366727
  - # 5
    frequency:    3.0744270369
  - # 6
    frequency:    3.7691392812

- q-position: [    0.2950000,    0.1475000,    0.4425000 ]
  distance:    0.1066033
  band:
  - # 1
    frequency:    1.1753195668
  - # 2
    frequency:    1.2506344282
  - # 3
    frequency:    2.2269678433
  - # 4
    frequency:    2.2833389271
  - # 5
    frequency:    3.0851426856
  - # 6
    frequency:    3.7510026838

- q-position: [    0.3000000,    0.1500000,    0.4500000 ]
  distance:    0.1084101
  band:
  - # 1
    frequency:    1.1855729912
  - # 2
    frequency:    1.2616759229
  - # 3
    frequency:    2.2277739146
  - # 4
    frequency:    2.2852032158
  - # 5
    frequency:    3.0945469726
  - # 6
    frequency:    3.7332236741

- q-position: [    0.3050000,    0.1525000,    0.4575000 ]
  distance:    0.1102169
  band:
  - # 1
    frequency:    1.1954204901
  - # 2
    frequency:    1.2719579055
  - # 3
    frequency:    2.2272387946
  - # 4
    frequency:    2.2874311697
  - # 5
    frequency:    3.1024965359
  - # 6
    frequency:    3.7159190213

- q-position: [    0.3100000,    0.1550000,    0.4650000 ]
  distance:    0.1120238
  band:
  - # 1
    frequency:    1.2048311891
  - # 2
    frequency:    1.2814393083
  - # 3
    frequency:    2.2254262432
  - # 4
    frequency:    2.2900132858
  - # 5
    frequency:    3.1088272956
  - # 6
    frequency:    3.6992153418

- q-position: [    0.3150000,    0.1575000,    0.4725000 ]
  distance:    0.1138306
  band:
  - # 1
    frequency:    1.2137775984
  - # 2
    frequency:    1.2900849142
  - # 3
    frequency:    2.2224078726
  - # 4
    frequency:    2.2929297371
  - # 5
    frequency:    3.1133565296
  - # 6
    frequency:    3.6832484819

- q-position: [    0.3200000,    0.1600000,    0.4800000 ]
  distance:    0.1156374
  band:
  - # 1
    frequency:    1.2222358925
  - # 2
    frequency:    1.2978660859
  - # 3
    frequency:    2.2182622748
  - # 4
    frequency:    2.2961513730
  - # 5
    frequency:    3.1158874870
  - # 6
    frequency:    3.6681607435

- q-position: [    0.3250000,    0.1625000,    0.4875000 ]
  distance:    0.1174443
  band:
  - # 1
    frequency:    1.2301860808
  - # 2
    frequency:    1.3047614212
  - # 3
    frequency:    2.2130738814
  - # 4
    frequency:    2.2996408821
  - # 5
    frequency:    3.1162171383
  - # 6
    frequency:    3.6540953042

- q-position: [    0.3300000,    0.1650000,    0.4950000 ]
  distance:    0.1192511
  band:
  - # 1
    frequency:    1.2376120836
  - # 2
    frequency:    1.3107573216
  - # 3
    frequency:    2.2069316113
  - # 4
    frequency:    2.3033540818
  - # 5
    frequency:    3.1141472602
  - # 6
    frequency:    3.6411875767

- q-position: [    0.3350000,    0.1675000,    0.5025000 ]
  distance:    0.1210579
  band:
  - # 1
    frequency:    1.2445017285
  - # 2
    frequency:    1.3158484585
  - # 3
    frequency:    2.1999273831
  - # 4
    frequency:    2.3072412964
  - # 5
    frequency:    3.1094982952
  - # 6
    frequency:    3.6295539888

- q-position: [    0.3400000,    0.1700000,    0.5100000 ]
  distance:    0.1228648
  band:
  - # 1
    frequency:    1.2508466866
  - # 2
    frequency:    1.3200381204
  - # 3
    frequency:    2.1921545726
  - # 4
    frequency:    2.3112487852
  - # 5
    frequency:    3.1021244246
  - # 6
    frequency:    3.6192796645

- q-position: [    0.3450000,    0.1725000,    0.5175000 ]
  distance:    0.1246716
  band:
  - # 1
    frequency:    1.2566423660
  - # 2
    frequency:    1.3233384220
  - # 3
    frequency:    2.1837065023
  - # 4
    frequency:    2.3153201782
  - # 5
    frequency:    3.0919274097
  - # 6
    frequency:    3.6104073718

- q-position: [    0.3500000,    0.1750000,    0.5250000 ]
  distance:    0.1264784
  band:
  - # 1
    frequency:    1.2618877803
  - # 2
    frequency:    1.3257703580
  - # 3
    frequency:    2.1746750428
  - # 4
    frequency:    2.3193978865
  - # 5
    frequency:    3.0788664824
  - # 6
    frequency:    3.6029303781

- q-position: [    0.3550000,    0.1775000,    0.5325000 ]
  distance:    0.1282853
  band:
  - # 1
    frequency:    1.2665854053
  - # 2
    frequency:    1.3273636857
  - # 3
    frequency:    2.1651493949
  - # 4
    frequency:    2.3234244501
  - # 5
    frequency:    3.0629622643
  - # 6
    frequency:    3.5967911674

- q-position: [    0.3600000,    0.1800000,    0.5400000 ]
  distance:    0.1300921
  band:
  - # 1
    frequency:    1.2707410359
  - # 2
    frequency:    1.3281566231
  - # 3
    frequency:    2.1552151077
  - # 4
    frequency:    2.3273437993
  - # 5
    frequency:    3.0442942192
  - # 6
    frequency:    3.5918864611

- q-position: [    0.3650000,    0.1825000,    0.5475000 ]
  distance:    0.1318989
  band:
  - # 1
    frequency:    1.2743636490
  - # 2
    frequency:    1.3281953587
  - # 3
    frequency:    2.1449533697
  - # 4
    frequency:    2.3311024030
  - # 5
    frequency:    3.0229928344
  - # 6
    frequency:    3.5880772999

- q-position: [    0.3700000,    0.1850000,    0.5550000 ]
  distance:    0.1337058
  band:
  - # 1
    frequency:    1.2774652776
  - # 2
    frequency:    1.3275333737
  - # 3
    frequency:    2.1344405899
  - # 4
    frequency:    2.3346502911
  - # 5
    frequency:    2.9992288511
  - # 6
    frequency:    3.5852018376

- q-position: [    0.3750000,    0.1875000,    0.5625000 ]
  distance:    0.1355126
  band:
  - # 1
    frequency:    1.2800608941
  - # 2
    frequency:    1.3262305874
  - # 3
    frequency:    2.1237482682
  - # 4
    frequency:    2.3379419361
  - # 5
    frequency:    2.9732020292
  - # 6
    frequency:    3.5830883362

- q-position: [    0.3800000,    0.1900000,    0.5700000 ]
  distance:    0.1373194
  band:
  - # 1
    frequency:    1.2821683022
  - # 2
    frequency:    1.3243523460
  - # 3
    frequency:    2.1129431372
  - # 4
    frequency:    2.3409369898
  - # 5
    frequency:    2.9451313334
  - # 6
    frequency:    3.5815664622

- q-position: [    0.3850000,    0.1925000,    0.5775000 ]
  distance:    0.1391263
  band:
  - # 1
    frequency:    1.2838080306
  - # 2
    frequency:    1.3219682815
  - # 3
    frequency:    2.1020875397
  - # 4
    frequency:    2.3436008704
  - # 5
    frequency:    2.9152475059
  - # 6
    frequency:    3.5804759095

- q-position: [    0.3900000,    0.1950000,    0.5850000 ]
  distance:    0.1409331
  band:
  - # 1
    frequency:    1.2850032235
  - # 2
    frequency:    1.3191510767
  - # 3
    frequency:    2.0912399982
  - # 4
    frequency:    2.3459052034
  - # 5
    frequency:    2.8837881803
  - # 6
    frequency:    3.5796721869

- q-position: [    0.3950000,    0.1975000,    0.5925000 ]
  distance:    0.1427400
  band:
  - # 1
    frequency:    1.2857795206
  - # 2
    frequency:    1.3159751740
  - # 3
    frequency:    2.0804559199
  - # 4
    frequency:    2.3478281176
  - # 5
    frequency:    2.8509951812
  - # 6
    frequency:    3.5790299249

- q-position: [    0.4000000,    0.2000000,    0.6000000 ]
  distance:    0.1445468
  band:
  - # 1
    frequency:    1.2861649186
  - # 2
    frequency:    1.3125154694
  - # 3
    frequency:    2.0697883787
  - # 4
    frequency:    2.3493544036
  - # 5
    frequency:    2.8171134380
  - # 6
    frequency:    3.5784442664

- q-position: [    0.4050000,    0.2025000,    0.6075000 ]
  distance:    0.1463536
  band:
  - # 1
    frequency:    1.2861896087
  - # 2
    frequency:    1.3088460334
  - # 3
    frequency:    2.0592889098
  - # 4
    frequency:    2.3504755411
  - # 5
    frequency:    2.7823909361
  - # 6
    frequency:    3.5778309167

- q-position: [    0.4100000,    0.2050000,    0.6150000 ]
  distance:    0.1481605
  band:
  - # 1
    frequency:    1.2858857830
  - # 2
    frequency:    1.3050388952
  - # 3
    frequency:    2.0490082546
  - # 4
    frequency:    2.3511896038
  - # 5
    frequency:    2.7470792226
  - # 6
    frequency:    3.5771253302

- q-position: [    0.4150000,    0.2075000,    0.6225000 ]
  distance:    0.1499673
  band:
  - # 1
    frequency:    1.2852874062
  - # 2
    frequency:    1.3011629238
  - # 3
    frequency:    2.0389969913
  - # 4
    frequency:    2.3515010510
  - # 5
    frequency:    2.7114341069
  - # 6
    frequency:    3.5762813904

- q-position: [    0.4200000,    0.2100000,    0.6300000 ]
  distance:    0.1517741
  band:
  - # 1
    frequency:    1.2844299475
  - # 2
    frequency:    1.2972828335
  - # 3
    frequency:    2.0293059917
  - # 4
    frequency:    2.3514204140
  - # 5
    frequency:    2.6757163116
  - # 6
    frequency:    3.5752698238

- q-position: [    0.4250000,    0.2125000,    0.6375000 ]
  distance:    0.1535810
  band:
  - # 1
    frequency:    1.2833500740
  - # 2
    frequency:    1.2934583325
  - # 3
    frequency:    2.0199866400
  - # 4
    frequency:    2.3509638894
  - # 5
    frequency:    2.6401919219
  - # 6
    frequency:    3.5740765003

- q-position: [    0.4300000,    0.2150000,    0.6450000 ]
  distance:    0.1553878
  band:
  - # 1
    frequency:    1.2820853026
  - # 2
    frequency:    1.2897434288
  - # 3
    frequency:    2.0110907568
  - # 4
    frequency:    2.3501528480
  - # 5
    frequency:    2.6051325477
  - # 6
    frequency:    3.5727007100

- q-position: [    0.4350000,    0.2175000,    0.6525000 ]
  distance:    0.1571946
  band:
  - # 1
    frequency:    1.2806736152
  - # 2
    frequency:    1.2861858996
  - # 3
    frequency:    2.0026701683
  - # 4
    frequency:    2.3490132689
  - # 5
    frequency:    2.5708151625
  - # 6
    frequency:    3.5711534654

- q-position: [    0.4400000,    0.2200000,    0.6600000 ]
  distance:    0.1590015
  band:
  - # 1
    frequency:    1.2791530394
  - # 2
    frequency:    1.2828269247
  - # 3
    frequency:    1.9947758691
  - # 4
    frequency:    2.3475751120
  - # 5
    frequency:    2.5375216116
  - # 6
    frequency:    3.5694558502

- q-position: [    0.4450000,    0.2225000,    0.6675000 ]
  distance:    0.1608083
  band:
  - # 1
    frequency:    1.2775612020
  - # 2
    frequency:    1.2797008805
  - # 3
    frequency:    1.9874567389
  - # 4
    frequency:    2.3458716372
  - # 5
    frequency:    2.5055378023
  - # 6
    frequency:    3.5676374248

- q-position: [    0.4500000,    0.2250000,    0.6750000 ]
  distance:    0.1626151
  band:
  - # 1
    frequency:    1.2759348620
  - # 2
    frequency:    1.2768352913
  - # 3
    frequency:    1.9807577979
  - # 4
    frequency:    2.3439386831
  - # 5
    frequency:    2.4751525884
  - # 6
    frequency:    3.5657346903

- q-position: [    0.4550000,    0.2275000,    0.6825000 ]
  distance:    0.1644220
  band:
  - # 1
    frequency:    1.2742509301
  - # 2
    frequency:    1.2743094334
  - # 3