14.400
  22.39374   0.00000   0.00000   0.00000  22.39374   0.00000   0.00000  -0.00000  22.39374
   4.79722   0.00000  -0.00000   0.00000   4.79721   0.00000   0.00000   0.00000   4.79721
  -4.79574   0.00000   0.00000   0.00000  -4.79574   0.00000   0.00000   0.00000  -4.79574
