128  
2    

1    
  0.0000000000000000   0.0070710678118655   0.0070710678118655
   0.0000000000   -0.0177497000   -0.0177497000
  -0.0000000000    0.0038566200    0.0038566200
   0.0000000000    0.0007396200    0.0007396200
   0.0000000000    0.0038163600    0.0038163600
   0.0035991300   -0.0003680200    0.0002425200
   0.0002415900    0.0001698900    0.0004225100
  -0.0002413200    0.0004212400    0.0001707300
  -0.0035831400    0.0002479200   -0.0003643300
   0.0004305300   -0.0000779600    0.0003088600
  -0.0000004100   -0.0000712900   -0.0000708200
  -0.0004305300    0.0003088600   -0.0000779600
   0.0000004100   -0.0000708200   -0.0000712900
   0.0035831400   -0.0003643300    0.0002479200
  -0.0035991300    0.0002425200   -0.0003680200
  -0.0002415900    0.0004225100    0.0001698900
   0.0002413200    0.0001707300    0.0004212400
   0.0035991300    0.0002425200   -0.0003680200
   0.0002415900    0.0004225100    0.0001698900
  -0.0002413200    0.0001707300    0.0004212400
  -0.0035831400   -0.0003643300    0.0002479200
   0.0003185600    0.0000939100    0.0000939100
   0.0000000400    0.0001237100    0.0001237100
  -0.0003171200    0.0000945900    0.0000945900
  -0.0000119400    0.0002024400    0.0002024400
   0.0000752500   -0.0001473100    0.0001038500
  -0.0000772800    0.0001041900   -0.0001469400
  -0.0004067100    0.0002663800   -0.0000801500
   0.0004088900   -0.0000804500    0.0002641500
   0.0000000000   -0.0033440200   -0.0033481800
   0.0000000000    0.0045347100    0.0002058700
   0.0000000000    0.0006746100    0.0006716200
   0.0000000000    0.0001992900    0.0045416500
   0.0004305300    0.0003088600   -0.0000779600
  -0.0000004100   -0.0000708200   -0.0000712900
  -0.0004305300   -0.0000779600    0.0003088600
   0.0000004100   -0.0000712900   -0.0000708200
   0.0000752500    0.0001038500   -0.0001473100
  -0.0000772800   -0.0001469400    0.0001041900
  -0.0004067100   -0.0000801500    0.0002663800
   0.0004088900    0.0002641500   -0.0000804500
   0.0000000000   -0.0001220600   -0.0001220600
   0.0000000000   -0.0001399800   -0.0001399800
   0.0000000000    0.0009496700    0.0009496700
  -0.0000000000   -0.0001447100   -0.0001447100
   0.0000772800    0.0001041900   -0.0001469400
   0.0004067100    0.0002663800   -0.0000801500
  -0.0004088900   -0.0000804500    0.0002641500
  -0.0000752500   -0.0001473100    0.0001038500
   0.0035831400    0.0002479200   -0.0003643300
  -0.0035991300   -0.0003680200    0.0002425200
  -0.0002415900    0.0001698900    0.0004225100
   0.0002413200    0.0004212400    0.0001707300
   0.0000000000   -0.0033481800   -0.0033440200
   0.0000000000    0.0002058700    0.0045347100
   0.0000000000    0.0006716200    0.0006746100
   0.0000000000    0.0045416500    0.0001992900
   0.0000772800   -0.0001469400    0.0001041900
   0.0004067100   -0.0000801500    0.0002663800
  -0.0004088900    0.0002641500   -0.0000804500
  -0.0000752500    0.0001038500   -0.0001473100
   0.0003171200    0.0000945900    0.0000945900
   0.0000119400    0.0002024400    0.0002024400
  -0.0003185600    0.0000939100    0.0000939100
  -0.0000000400    0.0001237100    0.0001237100
  -0.0006392100   -0.0003361600   -0.0003361600
  -0.0000000700   -0.0002327500   -0.0002327500
   0.0006345900   -0.0003345900   -0.0003345900
  -0.0000046500    0.0013625400    0.0013625400
  -0.0001118700   -0.0000239600   -0.0001211100
   0.0001117800   -0.0001210700   -0.0000244200
   0.0008199100   -0.0001389700    0.0000623200
  -0.0008248500    0.0000624500   -0.0001364800
   0.0000014400    0.0003013200    0.0003017300
   0.0005955300   -0.0003846100    0.0000624900
  -0.0000002600   -0.0001554400   -0.0001540800
  -0.0005979100    0.0000622700   -0.0003854600
   0.0000000000    0.0031392500    0.0013642800
   0.0000000000   -0.0012105500   -0.0007339800
   0.0000000000   -0.0007358300   -0.0012043100
   0.0000000000    0.0013605400    0.0028380700
  -0.0001118700   -0.0001211100   -0.0000239600
   0.0001117800   -0.0000244200   -0.0001210700
   0.0008199100    0.0000623200   -0.0001389700
  -0.0008248500   -0.0001364800    0.0000624500
   0.0000000600   -0.0000093700   -0.0000093700
   0.0001037800   -0.0000512600   -0.0000512600
   0.0000029700   -0.0002192900   -0.0002192900
  -0.0001045600   -0.0000500400   -0.0000500400
   0.0000000000    0.0004336200    0.0004575900
   0.0000000000   -0.0019207100   -0.0002197200
   0.0000000000   -0.0002189900   -0.0019239800
   0.0000000000    0.0004608100    0.0004411700
  -0.0005955300   -0.0003846100    0.0000624900
   0.0000002600   -0.0001554400   -0.0001540800
   0.0005979100    0.0000622700   -0.0003854600
  -0.0000014400    0.0003013200    0.0003017300
   0.0000014400    0.0003017300    0.0003013200
   0.0005955300    0.0000624900   -0.0003846100
  -0.0000002600   -0.0001540800   -0.0001554400
  -0.0005979100   -0.0003854600    0.0000622700
   0.0000000000    0.0004575900    0.0004336200
   0.0000000000   -0.0002197200   -0.0019207100
   0.0000000000   -0.0019239800   -0.0002189900
   0.0000000000    0.0004411700    0.0004608100
  -0.0001037800   -0.0000512600   -0.0000512600
  -0.0000029700   -0.0002192900   -0.0002192900
   0.0001045600   -0.0000500400   -0.0000500400
  -0.0000000600   -0.0000093700   -0.0000093700
  -0.0008199100   -0.0001389700    0.0000623200
   0.0008248500    0.0000624500   -0.0001364800
   0.0001118700   -0.0000239600   -0.0001211100
  -0.0001117800   -0.0001210700   -0.0000244200
   0.0000000000    0.0013642800    0.0031392500
   0.0000000000   -0.0007339800   -0.0012105500
   0.0000000000   -0.0012043100   -0.0007358300
   0.0000000000    0.0028380700    0.0013605400
  -0.0005955300    0.0000624900   -0.0003846100
   0.0000002600   -0.0001540800   -0.0001554400
   0.0005979100   -0.0003854600    0.0000622700
  -0.0000014400    0.0003017300    0.0003013200
  -0.0008199100    0.0000623200   -0.0001389700
   0.0008248500   -0.0001364800    0.0000624500
   0.0001118700   -0.0001211100   -0.0000239600
  -0.0001117800   -0.0000244200   -0.0001210700
   0.0000046500    0.0013625400    0.0013625400
   0.0006392100   -0.0003361600   -0.0003361600
   0.0000000700   -0.0002327500   -0.0002327500
  -0.0006345900   -0.0003345900   -0.0003345900

65   
  0.0000000000000000   0.0070710678118655   0.0070710678118655
  -0.0006349100   -0.0003355800   -0.0003355800
  -0.0000087500    0.0013642900    0.0013642900
   0.0006392500   -0.0003337800   -0.0003337800
   0.0000005600   -0.0002336400   -0.0002336400
   0.0000000000    0.0028438700    0.0013738500
   0.0000000000    0.0013540800    0.0031332100
   0.0000000000   -0.0009616800   -0.0009856400
   0.0000000000   -0.0009797100   -0.0009605700
   0.0000006000    0.0003011100    0.0003036800
  -0.0008234400    0.0000622400   -0.0003845300
  -0.0000011100   -0.0001553200   -0.0001564200
   0.0008220300   -0.0003863500    0.0000622500
  -0.0001121200   -0.0000248000   -0.0001214300
  -0.0005967500    0.0000627400   -0.0001411200
   0.0005975100   -0.0001356100    0.0000617500
   0.0001124900   -0.0001212200   -0.0000239800
   0.0000000000    0.0013738500    0.0028438700
   0.0000000000    0.0031332100    0.0013540800
   0.0000000000   -0.0009856400   -0.0009616800
   0.0000000000   -0.0009605700   -0.0009797100
   0.0000087500    0.0013642900    0.0013642900
  -0.0006392500   -0.0003337800   -0.0003337800
  -0.0000005600   -0.0002336400   -0.0002336400
   0.0006349100   -0.0003355800   -0.0003355800
  -0.0005975100    0.0000617500   -0.0001356100
  -0.0001124900   -0.0000239800   -0.0001212200
   0.0001121200   -0.0001214300   -0.0000248000
   0.0005967500   -0.0001411200    0.0000627400
  -0.0008220300    0.0000622500   -0.0003863500
  -0.0000006000    0.0003036800    0.0003011100
   0.0008234400   -0.0003845300    0.0000622400
   0.0000011100   -0.0001564200   -0.0001553200
   0.0000006000    0.0003036800    0.0003011100
  -0.0008234400   -0.0003845300    0.0000622400
  -0.0000011100   -0.0001564200   -0.0001553200
   0.0008220300    0.0000622500   -0.0003863500
  -0.0005975100   -0.0001356100    0.0000617500
  -0.0001124900   -0.0001212200   -0.0000239800
   0.0001121200   -0.0000248000   -0.0001214300
   0.0005967500    0.0000627400   -0.0001411200
  -0.0001035300   -0.0000513500   -0.0000513500
   0.0000000300   -0.0000090700   -0.0000090700
   0.0001046200   -0.0000517200   -0.0000517200
   0.0000061300   -0.0002201800   -0.0002201800
   0.0000000000    0.0006836100    0.0002111300
   0.0000000000    0.0002117900    0.0006852700
   0.0000000000   -0.0019257100   -0.0002193700
   0.0000000000   -0.0002205700   -0.0019178000
  -0.0001121200   -0.0001214300   -0.0000248000
  -0.0005967500   -0.0001411200    0.0000627400
   0.0005975100    0.0000617500   -0.0001356100
   0.0001124900   -0.0000239800   -0.0001212200
  -0.0008220300   -0.0003863500    0.0000622500
  -0.0000006000    0.0003011100    0.0003036800
   0.0008234400    0.0000622400   -0.0003845300
   0.0000011100   -0.0001553200   -0.0001564200
   0.0000000000    0.0002111300    0.0006836100
   0.0000000000    0.0006852700    0.0002117900
   0.0000000000   -0.0002193700   -0.0019257100
   0.0000000000   -0.0019178000   -0.0002205700
  -0.0000000300   -0.0000090700   -0.0000090700
  -0.0001046200   -0.0000517200   -0.0000517200
  -0.0000061300   -0.0002201800   -0.0002201800
   0.0001035300   -0.0000513500   -0.0000513500
   0.0000000000   -0.0213548300   -0.0213548300
   0.0000000000    0.0016370600    0.0016370600
   0.0000000000    0.0004602100    0.0004602100
   0.0000000000    0.0016079000    0.0016079000
   0.0014517000   -0.0000987100    0.0001728600
   0.0001921300    0.0001442600    0.0002711900
  -0.0001902800    0.0002710400    0.0001446700
  -0.0014461100    0.0001737500   -0.0000973700
   0.0003005500    0.0000116700    0.0001595600
   0.0000004300   -0.0000471400   -0.0000463600
  -0.0003005500    0.0001595600    0.0000116700
  -0.0000004300   -0.0000463600   -0.0000471400
   0.0014461100   -0.0000973700    0.0001737500
  -0.0014517000    0.0001728600   -0.0000987100
  -0.0001921300    0.0002711900    0.0001442600
   0.0001902800    0.0001446700    0.0002710400
   0.0014517000    0.0001728600   -0.0000987100
   0.0001921300    0.0002711900    0.0001442600
  -0.0001902800    0.0001446700    0.0002710400
  -0.0014461100   -0.0000973700    0.0001737500
   0.0002434200    0.0000931400    0.0000931400
   0.0000001500    0.0001139400    0.0001139400
  -0.0002421800    0.0000929000    0.0000929000
  -0.0000188100    0.0002932500    0.0002932500
   0.0000513000   -0.0000984500    0.0000286800
  -0.0000520000    0.0000280400   -0.0000980300
  -0.0004225800    0.0004483300    0.0001204000
   0.0004215700    0.0001210200    0.0004469000
   0.0000000000   -0.0012767900   -0.0012748200
   0.0000000000    0.0051547900    0.0002965500
   0.0000000000    0.0008713100    0.0008680800
   0.0000000000    0.0002904200    0.0051384700
   0.0003005500    0.0001595600    0.0000116700
   0.0000004300   -0.0000463600   -0.0000471400
  -0.0003005500    0.0000116700    0.0001595600
  -0.0000004300   -0.0000471400   -0.0000463600
   0.0000513000    0.0000286800   -0.0000984500
  -0.0000520000   -0.0000980300    0.0000280400
  -0.0004225800    0.0001204000    0.0004483300
   0.0004215700    0.0004469000    0.0001210200
   0.0000000000   -0.0001412400   -0.0001412400
   0.0000000000    0.0000252200    0.0000252200
  -0.0000000000    0.0013827300    0.0013827300
   0.0000000000    0.0000262100    0.0000262100
   0.0000520000    0.0000280400   -0.0000980300
   0.0004225800    0.0004483300    0.0001204000
  -0.0004215700    0.0001210200    0.0004469000
  -0.0000513000   -0.0000984500    0.0000286800
   0.0014461100    0.0001737500   -0.0000973700
  -0.0014517000   -0.0000987100    0.0001728600
  -0.0001921300    0.0001442600    0.0002711900
   0.0001902800    0.0002710400    0.0001446700
   0.0000000000   -0.0012748200   -0.0012767900
   0.0000000000    0.0002965500    0.0051547900
   0.0000000000    0.0008680800    0.0008713100
   0.0000000000    0.0051384700    0.0002904200
   0.0000520000   -0.0000980300    0.0000280400
   0.0004225800    0.0001204000    0.0004483300
  -0.0004215700    0.0004469000    0.0001210200
  -0.0000513000    0.0000286800   -0.0000984500
   0.0002421800    0.0000929000    0.0000929000
   0.0000188100    0.0002932500    0.0002932500
  -0.0002434200    0.0000931400    0.0000931400
  -0.0000001500    0.0001139400    0.0001139400
