mesh: [    48,    48,    48 ]
nqpoint: 2769   
natom:   2      
phonon:
- q-position: [    0.0000000,    0.0000000,    0.0000000 ]
  weight: 1    
  band:
  - # 1
    frequency:    -0.0023038395
  - # 2
    frequency:    -0.0023038395
  - # 3
    frequency:    -0.0023038395
  - # 4
    frequency:     0.7745436142
  - # 5
    frequency:     0.7745436142
  - # 6
    frequency:     0.7745436142

- q-position: [    0.0208333,    0.0000000,    0.0000000 ]
  weight: 8    
  band:
  - # 1
    frequency:     0.1250304840
  - # 2
    frequency:     0.1250304840
  - # 3
    frequency:     0.1922730081
  - # 4
    frequency:     0.8281638988
  - # 5
    frequency:     0.8281638988
  - # 6
    frequency:     3.7497699566

- q-position: [    0.0416667,    0.0000000,    0.0000000 ]
  weight: 8    
  band:
  - # 1
    frequency:     0.2365723971
  - # 2
    frequency:     0.2365723971
  - # 3
    frequency:     0.3823525550
  - # 4
    frequency:     0.9726663078
  - # 5
    frequency:     0.9726663078
  - # 6
    frequency:     3.7678821441

- q-position: [    0.0625000,    0.0000000,    0.0000000 ]
  weight: 8    
  band:
  - # 1
    frequency:     0.3357365335
  - # 2
    frequency:     0.3357365335
  - # 3
    frequency:     0.5681389235
  - # 4
    frequency:     1.1732987495
  - # 5
    frequency:     1.1732987495
  - # 6
    frequency:     3.7973946964

- q-position: [    0.0833333,    0.0000000,    0.0000000 ]
  weight: 8    
  band:
  - # 1
    frequency:     0.4283175490
  - # 2
    frequency:     0.4283175490
  - # 3
    frequency:     0.7477767844
  - # 4
    frequency:     1.4001473103
  - # 5
    frequency:     1.4001473103
  - # 6
    frequency:     3.8372849127

- q-position: [    0.1041667,    0.0000000,    0.0000000 ]
  weight: 8    
  band:
  - # 1
    frequency:     0.5174679932
  - # 2
    frequency:     0.5174679932
  - # 3
    frequency:     0.9197321801
  - # 4
    frequency:     1.6346989001
  - # 5
    frequency:     1.6346989001
  - # 6
    frequency:     3.8861112909

- q-position: [    0.1250000,    0.0000000,    0.0000000 ]
  weight: 8    
  band:
  - # 1
    frequency:     0.6041486273
  - # 2
    frequency:     0.6041486273
  - # 3
    frequency:     1.0828653153
  - # 4
    frequency:     1.8662012098
  - # 5
    frequency:     1.8662012098
  - # 6
    frequency:     3.9420279194

- q-position: [    0.1458333,    0.0000000,    0.0000000 ]
  weight: 8    
  band:
  - # 1
    frequency:     0.6884219445
  - # 2
    frequency:     0.6884219445
  - # 3
    frequency:     1.2364762999
  - # 4
    frequency:     2.0881156288
  - # 5
    frequency:     2.0881156288
  - # 6
    frequency:     4.0028268244

- q-position: [    0.1666667,    0.0000000,    0.0000000 ]
  weight: 8    
  band:
  - # 1
    frequency:     0.7700738735
  - # 2
    frequency:     0.7700738735
  - # 3
    frequency:     1.3803246768
  - # 4
    frequency:     2.2962423732
  - # 5
    frequency:     2.2962423732
  - # 6
    frequency:     4.0660120873

- q-position: [    0.1875000,    0.0000000,    0.0000000 ]
  weight: 8    
  band:
  - # 1
    frequency:     0.8488400624
  - # 2
    frequency:     0.8488400624
  - # 3
    frequency:     1.5146253380
  - # 4
    frequency:     2.4878296611
  - # 5
    frequency:     2.4878296611
  - # 6
    frequency:     4.1289021356

- q-position: [    0.2083333,    0.0000000,    0.0000000 ]
  weight: 8    
  band:
  - # 1
    frequency:     0.9244750566
  - # 2
    frequency:     0.9244750566
  - # 3
    frequency:     1.6400236280
  - # 4
    frequency:     2.6611418691
  - # 5
    frequency:     2.6611418691
  - # 6
    frequency:     4.1887510622

- q-position: [    0.2291667,    0.0000000,    0.0000000 ]
  weight: 8    
  band:
  - # 1
    frequency:     0.9967634903
  - # 2
    frequency:     0.9967634903
  - # 3
    frequency:     1.7575499419
  - # 4
    frequency:     2.8152340692
  - # 5
    frequency:     2.8152340692
  - # 6
    frequency:     4.2428779791

- q-position: [    0.2500000,    0.0000000,    0.0000000 ]
  weight: 8    
  band:
  - # 1
    frequency:     1.0655101809
  - # 2
    frequency:     1.0655101809
  - # 3
    frequency:     1.8685501174
  - # 4
    frequency:     2.9498189989
  - # 5
    frequency:     2.9498189989
  - # 6
    frequency:     4.2887951809

- q-position: [    0.2708333,    0.0000000,    0.0000000 ]
  weight: 8    
  band:
  - # 1
    frequency:     1.1305232848
  - # 2
    frequency:     1.1305232848
  - # 3
    frequency:     1.9745846755
  - # 4
    frequency:     3.0651741125
  - # 5
    frequency:     3.0651741125
  - # 6
    frequency:     4.3243297724

- q-position: [    0.2916667,    0.0000000,    0.0000000 ]
  weight: 8    
  band:
  - # 1
    frequency:     1.1915966110
  - # 2
    frequency:     1.1915966110
  - # 3
    frequency:     2.0772896354
  - # 4
    frequency:     3.1620637836
  - # 5
    frequency:     3.1620637836
  - # 6
    frequency:     4.3477376829

- q-position: [    0.3125000,    0.0000000,    0.0000000 ]
  weight: 8    
  band:
  - # 1
    frequency:     1.2484942522
  - # 2
    frequency:     1.2484942522
  - # 3
    frequency:     2.1781949784
  - # 4
    frequency:     3.2416644147
  - # 5
    frequency:     3.2416644147
  - # 6
    frequency:     4.3578126989

- q-position: [    0.3333333,    0.0000000,    0.0000000 ]
  weight: 8    
  band:
  - # 1
    frequency:     1.3009395327
  - # 2
    frequency:     1.3009395327
  - # 3
    frequency:     2.2785026924
  - # 4
    frequency:     3.3054863497
  - # 5
    frequency:     3.3054863497
  - # 6
    frequency:     4.3539963612

- q-position: [    0.3541667,    0.0000000,    0.0000000 ]
  weight: 8    
  band:
  - # 1
    frequency:     1.3486097572
  - # 2
    frequency:     1.3486097572
  - # 3
    frequency:     2.3788317379
  - # 4
    frequency:     3.3552896295
  - # 5
    frequency:     3.3552896295
  - # 6
    frequency:     4.3364980165

- q-position: [    0.3750000,    0.0000000,    0.0000000 ]
  weight: 8    
  band:
  - # 1
    frequency:     1.3911379510
  - # 2
    frequency:     1.3911379510
  - # 3
    frequency:     2.4789387950
  - # 4
    frequency:     3.3929924112
  - # 5
    frequency:     3.3929924112
  - # 6
    frequency:     4.3064384858

- q-position: [    0.3958333,    0.0000000,    0.0000000 ]
  weight: 8    
  band:
  - # 1
    frequency:     1.4281224881
  - # 2
    frequency:     1.4281224881
  - # 3
    frequency:     2.5774203989
  - # 4
    frequency:     3.4205721384
  - # 5
    frequency:     3.4205721384
  - # 6
    frequency:     4.2660340959

- q-position: [    0.4166667,    0.0000000,    0.0000000 ]
  weight: 8    
  band:
  - # 1
    frequency:     1.4591449991
  - # 2
    frequency:     1.4591449991
  - # 3
    frequency:     2.6714025905
  - # 4
    frequency:     3.4399608453
  - # 5
    frequency:     3.4399608453
  - # 6
    frequency:     4.2188311199

- q-position: [    0.4375000,    0.0000000,    0.0000000 ]
  weight: 8    
  band:
  - # 1
    frequency:     1.4837960212
  - # 2
    frequency:     1.4837960212
  - # 3
    frequency:     2.7562607194
  - # 4
    frequency:     3.4529376021
  - # 5
    frequency:     3.4529376021
  - # 6
    frequency:     4.1699536767

- q-position: [    0.4583333,    0.0000000,    0.0000000 ]
  weight: 8    
  band:
  - # 1
    frequency:     1.5017064151
  - # 2
    frequency:     1.5017064151
  - # 3
    frequency:     2.8255581227
  - # 4
    frequency:     3.4610231445
  - # 5
    frequency:     3.4610231445
  - # 6
    frequency:     4.1261709364

- q-position: [    0.4791667,    0.0000000,    0.0000000 ]
  weight: 8    
  band:
  - # 1
    frequency:     1.5125807976
  - # 2
    frequency:     1.5125807976
  - # 3
    frequency:     2.8717066070
  - # 4
    frequency:     3.4653838676
  - # 5
    frequency:     3.4653838676
  - # 6
    frequency:     4.0952670658

- q-position: [    0.5000000,    0.0000000,    0.0000000 ]
  weight: 4    
  band:
  - # 1
    frequency:     1.5162277126
  - # 2
    frequency:     1.5162277126
  - # 3
    frequency:     2.8880109076
  - # 4
    frequency:     3.4667538877
  - # 5
    frequency:     3.4667538877
  - # 6
    frequency:     4.0840347275

- q-position: [    0.0208333,    0.0208333,    0.0000000 ]
  weight: 6    
  band:
  - # 1
    frequency:     0.1463356666
  - # 2
    frequency:     0.1463356666
  - # 3
    frequency:     0.2192706050
  - # 4
    frequency:     0.8340205540
  - # 5
    frequency:     0.8340205540
  - # 6
    frequency:     3.7564166515

- q-position: [    0.0416667,    0.0208333,    0.0000000 ]
  weight: 24   
  band:
  - # 1
    frequency:     0.2296009629
  - # 2
    frequency:     0.2327775199
  - # 3
    frequency:     0.3639304371
  - # 4
    frequency:     0.9361804993
  - # 5
    frequency:     0.9474808612
  - # 6
    frequency:     3.7721730045

- q-position: [    0.0625000,    0.0208333,    0.0000000 ]
  weight: 24   
  band:
  - # 1
    frequency:     0.3184036529
  - # 2
    frequency:     0.3255665421
  - # 3
    frequency:     0.5347877345
  - # 4
    frequency:     1.1073763989
  - # 5
    frequency:     1.1345519507
  - # 6
    frequency:     3.7972285500

- q-position: [    0.0833333,    0.0208333,    0.0000000 ]
  weight: 24   
  band:
  - # 1
    frequency:     0.4061595176
  - # 2
    frequency:     0.4146407151
  - # 3
    frequency:     0.7084444599
  - # 4
    frequency:     1.3163005923
  - # 5
    frequency:     1.3556377070
  - # 6
    frequency:     3.8324289378

- q-position: [    0.1041667,    0.0208333,    0.0000000 ]
  weight: 24   
  band:
  - # 1
    frequency:     0.4933645577
  - # 2
    frequency:     0.5004978872
  - # 3
    frequency:     0.8782221522
  - # 4
    frequency:     1.5405855520
  - # 5
    frequency:     1.5889302836
  - # 6
    frequency:     3.8767830241

- q-position: [    0.1250000,    0.0208333,    0.0000000 ]
  weight: 24   
  band:
  - # 1
    frequency:     0.5799980132
  - # 2
    frequency:     0.5838206234
  - # 3
    frequency:     1.0411753578
  - # 4
    frequency:     1.7666589875
  - # 5
    frequency:     1.8220695732
  - # 6
    frequency:     3.9286944589

- q-position: [    0.1458333,    0.0208333,    0.0000000 ]
  weight: 24   
  band:
  - # 1
    frequency:     0.6647188798
  - # 2
    frequency:     0.6655499814
  - # 3
    frequency:     1.1957539442
  - # 4
    frequency:     1.9863269470
  - # 5
    frequency:     2.0476090086
  - # 6
    frequency:     3.9861606879

- q-position: [    0.1666667,    0.0208333,    0.0000000 ]
  weight: 24   
  band:
  - # 1
    frequency:     0.7430589501
  - # 2
    frequency:     0.7494023133
  - # 3
    frequency:     1.3412153549
  - # 4
    frequency:     2.1944351987
  - # 5
    frequency:     2.2607569601
  - # 6
    frequency:     4.0468582249

- q-position: [    0.1875000,    0.0208333,    0.0000000 ]
  weight: 24   
  band:
  - # 1
    frequency:     0.8186648635
  - # 2
    frequency:     0.8309781252
  - # 3
    frequency:     1.4774253974
  - # 4
    frequency:     2.3876561778
  - # 5
    frequency:     2.4583162630
  - # 6
    frequency:     4.1082363063

- q-position: [    0.2083333,    0.0208333,    0.0000000 ]
  weight: 24   
  band:
  - # 1
    frequency:     0.8913897461
  - # 2
    frequency:     0.9097758015
  - # 3
    frequency:     1.6047608349
  - # 4
    frequency:     2.5638837989
  - # 5
    frequency:     2.6381769775
  - # 6
    frequency:     4.1676297209

- q-position: [    0.2291667,    0.0208333,    0.0000000 ]
  weight: 24   
  band:
  - # 1
    frequency:     0.9611267726
  - # 2
    frequency:     0.9853630173
  - # 3
    frequency:     1.7240357149
  - # 4
    frequency:     2.7219181306
  - # 5
    frequency:     2.7990582724
  - # 6
    frequency:     4.2223835993

- q-position: [    0.2500000,    0.0208333,    0.0000000 ]
  weight: 24   
  band:
  - # 1
    frequency:     1.0277955575
  - # 2
    frequency:     1.0573592731
  - # 3
    frequency:     1.8364232089
  - # 4
    frequency:     2.8612847894
  - # 5
    frequency:     2.9403630132
  - # 6
    frequency:     4.2699807826

- q-position: [    0.2708333,    0.0208333,    0.0000000 ]
  weight: 24   
  band:
  - # 1
    frequency:     1.0913195208
  - # 2
    frequency:     1.1254165307
  - # 3
    frequency:     1.9433575183
  - # 4
    frequency:     2.9821157026
  - # 5
    frequency:     3.0620824964
  - # 6
    frequency:     4.3081650710

- q-position: [    0.2916667,    0.0208333,    0.0000000 ]
  weight: 24   
  band:
  - # 1
    frequency:     1.1516013629
  - # 2
    frequency:     1.1892011828
  - # 3
    frequency:     2.0464047330
  - # 4
    frequency:     3.0850559549
  - # 5
    frequency:     3.1647214337
  - # 6
    frequency:     4.3350577522

- q-position: [    0.3125000,    0.0208333,    0.0000000 ]
  weight: 24   
  band:
  - # 1
    frequency:     1.2085005404
  - # 2
    frequency:     1.2483787318
  - # 3
    frequency:     2.1470957053
  - # 4
    frequency:     3.1711793482
  - # 5
    frequency:     3.2492283504
  - # 6
    frequency:     4.3492686679

- q-position: [    0.3333333,    0.0208333,    0.0000000 ]
  weight: 24   
  band:
  - # 1
    frequency:     1.2618153115
  - # 2
    frequency:     1.3026023135
  - # 3
    frequency:     2.2467197361
  - # 4
    frequency:     3.2419040642
  - # 5
    frequency:     3.3169239168
  - # 6
    frequency:     4.3500063059

- q-position: [    0.3541667,    0.0208333,    0.0000000 ]
  weight: 24   
  band:
  - # 1
    frequency:     1.3112712806
  - # 2
    frequency:     1.3515064862
  - # 3
    frequency:     2.3460837334
  - # 4
    frequency:     3.2989043216
  - # 5
    frequency:     3.3694234915
  - # 6
    frequency:     4.3371945179

- q-position: [    0.3750000,    0.0208333,    0.0000000 ]
  weight: 24   
  band:
  - # 1
    frequency:     1.3565179591
  - # 2
    frequency:     1.3947078910
  - # 3
    frequency:     2.4452447636
  - # 4
    frequency:     3.3440164275
  - # 5
    frequency:     3.4085521491
  - # 6
    frequency:     4.3116071515

- q-position: [    0.3958333,    0.0208333,    0.0000000 ]
  weight: 24   
  band:
  - # 1
    frequency:     1.3971344667
  - # 2
    frequency:     1.4318140416
  - # 3
    frequency:     2.5432229882
  - # 4
    frequency:     3.3791392443
  - # 5
    frequency:     3.4362514943
  - # 6
    frequency:     4.2750355153

- q-position: [    0.4166667,    0.0208333,    0.0000000 ]
  weight: 24   
  band:
  - # 1
    frequency:     1.4326449590
  - # 2
    frequency:     1.4624404962
  - # 3
    frequency:     2.6377014228
  - # 4
    frequency:     3.4061304596
  - # 5
    frequency:     3.4544780415
  - # 6
    frequency:     4.2305015068

- q-position: [    0.4375000,    0.0208333,    0.0000000 ]
  weight: 24   
  band:
  - # 1
    frequency:     1.4625435085
  - # 2
    frequency:     1.4862352760
  - # 3
    frequency:     2.7247401870
  - # 4
    frequency:     3.4267015111
  - # 5
    frequency:     3.4650931277
  - # 6
    frequency:     4.1825007836

- q-position: [    0.4583333,    0.0208333,    0.0000000 ]
  weight: 24   
  band:
  - # 1
    frequency:     1.4863268536
  - # 2
    frequency:     1.5029079595
  - # 3
    frequency:     2.7986308384
  - # 4
    frequency:     3.4423157287
  - # 5
    frequency:     3.4697456184
  - # 6
    frequency:     4.1371521802

- q-position: [    0.4791667,    0.0208333,    0.0000000 ]
  weight: 24   
  band:
  - # 1
    frequency:     1.5035317637
  - # 2
    frequency:     1.5122596437
  - # 3
    frequency:     2.8522607784
  - # 4
    frequency:     3.4540960331
  - # 5
    frequency:     3.4697570562
  - # 6
    frequency:     4.1018693584

- q-position: [    0.5000000,    0.0208333,    0.0000000 ]
  weight: 24   
  band:
  - # 1
    frequency:     1.5137721537
  - # 2
    frequency:     1.5142090477
  - # 3
    frequency:     2.8786085229
  - # 4
    frequency:     3.4627498579
  - # 5
    frequency:     3.4660420224
  - # 6
    frequency:     4.0838931210

- q-position: [   -0.4791667,    0.0208333,    0.0000000 ]
  weight: 24   
  band:
  - # 1
    frequency:     1.5087288961
  - # 2
    frequency:     1.5167702349
  - # 3
    frequency:     2.8732425663
  - # 4
    frequency:     3.4592911678
  - # 5
    frequency:     3.4685190886
  - # 6
    frequency:     4.0875690439

- q-position: [   -0.4583333,    0.0208333,    0.0000000 ]
  weight: 24   
  band:
  - # 1
    frequency:     1.4960632536
  - # 2
    frequency:     1.5123765585
  - # 3
    frequency:     2.8371857202
  - # 4
    frequency:     3.4494967445
  - # 5
    frequency:     3.4711611386
  - # 6
    frequency:     4.1119631286

- q-position: [   -0.4375000,    0.0208333,    0.0000000 ]
  weight: 24   
  band:
  - # 1
    frequency:     1.4765884213
  - # 2
    frequency:     1.5005759390
  - # 3
    frequency:     2.7760292990
  - # 4
    frequency:     3.4362240415
  - # 5
    frequency:     3.4699638180
  - # 6
    frequency:     4.1514532521

- q-position: [   -0.4166667,    0.0208333,    0.0000000 ]
  weight: 24   
  band:
  - # 1
    frequency:     1.4507419518
  - # 2
    frequency:     1.4814793265
  - # 3
    frequency:     2.6970687577
  - # 4
    frequency:     3.4187168874
  - # 5
    frequency:     3.4637922692
  - # 6
    frequency:     4.1984875830

- q-position: [   -0.3958333,    0.0208333,    0.0000000 ]
  weight: 24   
  band:
  - # 1
    frequency:     1.4190264828
  - # 2
    frequency:     1.4553045872
  - # 3
    frequency:     2.6070310116
  - # 4
    frequency:     3.3958008976
  - # 5
    frequency:     3.4511622824
  - # 6
    frequency:     4.2459829405

- q-position: [   -0.3750000,    0.0208333,    0.0000000 ]
  weight: 24   
  band:
  - # 1
    frequency:     1.3819683731
  - # 2
    frequency:     1.4223508736
  - # 3
    frequency:     2.5110305115
  - # 4
    frequency:     3.3659532449
  - # 5
    frequency:     3.4303319560
  - # 6
    frequency:     4.2883494177

- q-position: [   -0.3541667,    0.0208333,    0.0000000 ]
  weight: 24   
  band:
  - # 1
    frequency:     1.3400776928
  - # 2
    frequency:     1.3829714529
  - # 3
    frequency:     2.4124379686
  - # 4
    frequency:     3.3274102965
  - # 5
    frequency:     3.3994033124
  - # 6
    frequency:     4.3215985630

- q-position: [   -0.3333333,    0.0208333,    0.0000000 ]
  weight: 24   
  band:
  - # 1
    frequency:     1.2938149265
  - # 2
    frequency:     1.3375488972
  - # 3
    frequency:     2.3130965590
  - # 4
    frequency:     3.2782829698
  - # 5
    frequency:     3.3564267153
  - # 6
    frequency:     4.3431371675

- q-position: [   -0.3125000,    0.0208333,    0.0000000 ]
  weight: 24   
  band:
  - # 1
    frequency:     1.2435680870
  - # 2
    frequency:     1.2864751019
  - # 3
    frequency:     2.2136165713
  - # 4
    frequency:     3.2166691005
  - # 5
    frequency:     3.2995029386
  - # 6
    frequency:     4.3515279410

- q-position: [   -0.2916667,    0.0208333,    0.0000000 ]
  weight: 24   
  band:
  - # 1
    frequency:     1.1896418750
  - # 2
    frequency:     1.2301372975
  - # 3
    frequency:     2.1136699138
  - # 4
    frequency:     3.1407600625
  - # 5
    frequency:     3.2268797565
  - # 6
    frequency:     4.3462918422

- q-position: [   -0.2708333,    0.0208333,    0.0000000 ]
  weight: 24   
  band:
  - # 1
    frequency:     1.1322585308
  - # 2
    frequency:     1.1689103256
  - # 3
    frequency:     2.0122693138
  - # 4
    frequency:     3.0489407635
  - # 5
    frequency:     3.1370415883
  - # 6
    frequency:     4.3277530334

- q-position: [   -0.2500000,    0.0208333,    0.0000000 ]
  weight: 24   
  band:
  - # 1
    frequency:     1.0715685510
  - # 2
    frequency:     1.1031549661
  - # 3
    frequency:     1.9080267284
  - # 4
    frequency:     2.9398828218
  - # 5
    frequency:     3.0287920079
  - # 6
    frequency:     4.2969114537

- q-position: [   -0.2291667,    0.0208333,    0.0000000 ]
  weight: 24   
  band:
  - # 1
    frequency:     1.0076687519
  - # 2
    frequency:     1.0332218735
  - # 3
    frequency:     1.7993832906
  - # 4
    frequency:     2.8126316528
  - # 5
    frequency:     2.9013300762
  - # 6
    frequency:     4.2553290296

- q-position: [   -0.2083333,    0.0208333,    0.0000000 ]
  weight: 24   
  band:
  - # 1
    frequency:     0.9406250945
  - # 2
    frequency:     0.9594605451
  - # 3
    frequency:     1.6848032668
  - # 4
    frequency:     2.6666898530
  - # 5
    frequency:     2.7543229204
  - # 6
    frequency:     4.2050194824

- q-position: [   -0.1875000,    0.0208333,    0.0000000 ]
  weight: 24   
  band:
  - # 1
    frequency:     0.8704977756
  - # 2
    frequency:     0.8822325592
  - # 3
    frequency:     1.5629288530
  - # 4
    frequency:     2.5021023358
  - # 5
    frequency:     2.5879794482
  - # 6
    frequency:     4.1483351907

- q-position: [   -0.1666667,    0.0208333,    0.0000000 ]
  weight: 24   
  band:
  - # 1
    frequency:     0.7973656811
  - # 2
    frequency:     0.8019279403
  - # 3
    frequency:     1.4326988396
  - # 4
    frequency:     2.3195545205
  - # 5
    frequency:     2.4031347700
  - # 6
    frequency:     4.0878476301

- q-position: [   -0.1458333,    0.0208333,    0.0000000 ]
  weight: 24   
  band:
  - # 1
    frequency:     0.7189825070
  - # 2
    frequency:     0.7213454789
  - # 3
    frequency:     1.2934396526
  - # 4
    frequency:     2.1205065563
  - # 5
    frequency:     2.2013642538
  - # 6
    frequency:     4.0262212265

- q-position: [   -0.1250000,    0.0208333,    0.0000000 ]
  weight: 24   
  band:
  - # 1
    frequency:     0.6338912489
  - # 2
    frequency:     0.6425953149
  - # 3
    frequency:     1.1449413737
  - # 4
    frequency:     1.9074111924
  - # 5
    frequency:     1.9851655462
  - # 6
    frequency:     3.9660842397

- q-position: [   -0.1041667,    0.0208333,    0.0000000 ]
  weight: 24   
  band:
  - # 1
    frequency:     0.5472047528
  - # 2
    frequency:     0.5612789993
  - # 3
    frequency:     0.9875374355
  - # 4
    frequency:     1.6841173012
  - # 5
    frequency:     1.7582884846
  - # 6
    frequency:     3.9099036262

- q-position: [   -0.0833333,    0.0208333,    0.0000000 ]
  weight: 24   
  band:
  - # 1
    frequency:     0.4594749648
  - # 2
    frequency:     0.4774330347
  - # 3
    frequency:     0.8222274344
  - # 4
    frequency:     1.4566829536
  - # 5
    frequency:     1.5263825584
  - # 6
    frequency:     3.8598712304

- q-position: [   -0.0625000,    0.0208333,    0.0000000 ]
  weight: 24   
  band:
  - # 1
    frequency:     0.3710826456
  - # 2
    frequency:     0.3906314060
  - # 3
    frequency:     0.6509633258
  - # 4
    frequency:     1.2350724274
  - # 5
    frequency:     1.2983088751
  - # 6
    frequency:     3.8178010655

- q-position: [   -0.0416667,    0.0208333,    0.0000000 ]
  weight: 24   
  band:
  - # 1
    frequency:     0.2819993452
  - # 2
    frequency:     0.2995524267
  - # 3
    frequency:     0.4775748343
  - # 4
    frequency:     1.0364998666
  - # 5
    frequency:     1.0886605381
  - # 6
    frequency:     3.7850076600

- q-position: [   -0.0208333,    0.0208333,    0.0000000 ]
  weight: 12   
  band:
  - # 1
    frequency:     0.1933911942
  - # 2
    frequency:     0.2040105875
  - # 3
    frequency:     0.3118526319
  - # 4
    frequency:     0.8900213535
  - # 5
    frequency:     0.9212521118
  - # 6
    frequency:     3.7620610681

- q-position: [    0.0416667,    0.0416667,    0.0000000 ]
  weight: 6    
  band:
  - # 1
    frequency:     0.2759666151
  - # 2
    frequency:     0.2759666151
  - # 3
    frequency:     0.4369818830
  - # 4
    frequency:     0.9871369370
  - # 5
    frequency:     0.9871369370
  - # 6
    frequency:     3.7923324687

- q-position: [    0.0625000,    0.0416667,    0.0000000 ]
  weight: 24   
  band:
  - # 1
    frequency:     0.3418431295
  - # 2
    frequency:     0.3442770518
  - # 3
    frequency:     0.5649898985
  - # 4
    frequency:     1.1117274652
  - # 5
    frequency:     1.1241830896
  - # 6
    frequency:     3.8170761765

- q-position: [    0.0833333,    0.0416667,    0.0000000 ]
  weight: 24   
  band:
  - # 1
    frequency:     0.4144102024
  - # 2
    frequency:     0.4200219434
  - # 3
    frequency:     0.7147202273
  - # 4
    frequency:     1.2849723507
  - # 5
    frequency:     1.3209399643
  - # 6
    frequency:     3.8475234869

- q-position: [    0.1041667,    0.0416667,    0.0000000 ]
  weight: 24   
  band:
  - # 1
    frequency:     0.4912578253
  - # 2
    frequency:     0.4969281586
  - # 3
    frequency:     0.8708786061
  - # 4
    frequency:     1.4839792501
  - # 5
    frequency:     1.5425330566
  - # 6
    frequency:     3.8851724680

- q-position: [    0.1250000,    0.0416667,    0.0000000 ]
  weight: 24   
  band:
  - # 1
    frequency:     0.5711828972
  - # 2
    frequency:     0.5731641278
  - # 3
    frequency:     1.0259900312
  - # 4
    frequency:     1.6926491985
  - # 5
    frequency:     1.7704402570
  - # 6
    frequency:     3.9297336351

- q-position: [    0.1458333,    0.0416667,    0.0000000 ]
  weight: 24   
  band:
  - # 1
    frequency:     0.6479938789
  - # 2
    frequency:     0.6527713491
  - # 3
    frequency:     1.1761599754
  - # 4
    frequency:     1.9006010278
  - # 5
    frequency:     1.9946590509
  - # 6
    frequency:     3.9799317772

- q-position: [    0.1666667,    0.0416667,    0.0000000 ]
  weight: 24   
  band:
  - # 1
    frequency:     0.7209824815
  - # 2
    frequency:     0.7346802713
  - # 3
    frequency:     1.3193343157
  - # 4
    frequency:     2.1011792144
  - # 5
    frequency:     2.2091783288
  - # 6
    frequency:     4.0339378975

- q-position: [    0.1875000,    0.0416667,    0.0000000 ]
  weight: 24   
  band:
  - # 1
    frequency:     0.7918501839
  - # 2
    frequency:     0.8157719098
  - # 3
    frequency:     1.4545587365
  - # 4
    frequency:     2.2900714938
  - # 5
    frequency:     2.4100842252
  - # 6
    frequency:     4.0895741759

- q-position: [    0.2083333,    0.0416667,    0.0000000 ]
  weight: 24   
  band:
  - # 1
    frequency:     0.8604334603
  - # 2
    frequency:     0.8951108272
  - # 3
    frequency:     1.5816393454
  - # 4
    frequency:     2.4645152228
  - # 5
    frequency:     2.5947511190
  - # 6
    frequency:     4.1444562130

- q-position: [    0.2291667,    0.0416667,    0.0000000 ]
  weight: 24   
  band:
  - # 1
    frequency:     0.9266537140
  - # 2
    frequency:     0.9719241032
  - # 3
    frequency:     1.7009583849
  - # 4
    frequency:     2.6228536314
  - # 5
    frequency:     2.7614676108
  - # 6
    frequency:     4.1961235308

- q-position: [    0.2500000,    0.0416667,    0.0000000 ]
  weight: 24   
  band:
  - # 1
    frequency:     0.9904826139
  - # 2
    frequency:     1.0455604678
  - # 3
    frequency:     1.8133454870
  - # 4
    frequency:     2.7642759922
  - # 5
    frequency:     2.9092459192
  - # 6
    frequency:     4.2421677995

- q-position: [    0.2708333,    0.0416667,    0.0000000 ]
  weight: 24   
  band:
  - # 1
    frequency:     1.0519060431
  - # 2
    frequency:     1.1154559641
  - # 3
    frequency:     1.9199601085
  - # 4
    frequency:     2.8886500672
  - # 5
    frequency:     3.0377113903
  - # 6
    frequency:     4.2803573132

- q-position: [    0.2916667,    0.0416667,    0.0000000 ]
  weight: 24   
  band:
  - # 1
    frequency:     1.1108895547
  - # 2
    frequency:     1.1811056704
  - # 3
    frequency:     2.0221617941
  - # 4
    frequency:     2.9963989206
  - # 5
    frequency:     3.1470258871
  - # 6
    frequency:     4.3087558589

- q-position: [    0.3125000,    0.0416667,    0.0000000 ]
  weight: 24   
  band:
  - # 1
    frequency:     1.1673478545
  - # 2
    frequency:     1.2420400185
  - # 3
    frequency:     2.1213547612
  - # 4
    frequency:     3.0883973204
  - # 5
    frequency:     3.2378226455
  - # 6
    frequency:     4.3258366924

- q-position: [    0.3333333,    0.0416667,    0.0000000 ]
  weight: 24   
  band:
  - # 1
    frequency:     1.2211204596
  - # 2
    frequency:     1.2978056496
  - # 3
    frequency:     2.2188002374
  - # 4
    frequency:     3.1658750698
  - # 5
    frequency:     3.3111412798
  - # 6
    frequency:     4.3305950267

- q-position: [    0.3541667,    0.0416667,    0.0000000 ]
  weight: 24   
  band:
  - # 1
    frequency:     1.2719553031
  - # 2
    frequency:     1.3479527407
  - # 3
    frequency:     2.3153960635
  - # 4
    frequency:     3.2303211271
  - # 5
    frequency:     3.3683574410
  - # 6
    frequency:     4.3226647862

- q-position: [    0.3750000,    0.0416667,    0.0000000 ]
  weight: 24   
  band:
  - # 1
    frequency:     1.3195016252
  - # 2
    frequency:     1.3920319208
  - # 3
    frequency:     2.4114278276
  - # 4
    frequency:     3.2833860516
  - # 5
    frequency:     3.4111048139
  - # 6
    frequency:     4.3024479057

- q-position: [    0.3958333,    0.0416667,    0.0000000 ]
  weight: 24   
  band:
  - # 1
    frequency:     1.3633129979
  - # 2
    frequency:     1.4296031949
  - # 3
    frequency:     2.5062985448
  - # 4
    frequency:     3.3267825541
  - # 5
    frequency:     3.4411884800
  - # 6
    frequency:     4.2712671388

- q-position: [    0.4166667,    0.0416667,    0.0000000 ]
  weight: 24   
  band:
  - # 1
    frequency:     1.4028607516
  - # 2
    frequency:     1.4602566700
  - # 3
    frequency:     2.5982470209
  - # 4
    frequency:     3.3621854804
  - # 5
    frequency:     3.4604881616
  - # 6
    frequency:     4.2315528434

- q-position: [    0.4375000,    0.0416667,    0.0000000 ]
  weight: 24   
  band:
  - # 1
    frequency:     1.4375573327
  - # 2
    frequency:     1.4836417141
  - # 3
    frequency:     2.6840813386
  - # 4
    frequency:     3.3911338248
  - # 5
    frequency:     3.4708472188
  - # 6
    frequency:     4.1870573844

- q-position: [    0.4583333,    0.0416667,    0.0000000 ]
  weight: 24   
  band:
  - # 1