natom:   96
displacements:
- atom:    1
  direction:
    [   1.0000000000000000,  0.0000000000000000,  0.0000000000000000 ]
  displacement:
    [   0.0100000000000000,  0.0000000000000000,  0.0000000000000000 ]
- atom:    1
  direction:
    [  -1.0000000000000000,  0.0000000000000000,  0.0000000000000000 ]
  displacement:
    [  -0.0100000000000000,  0.0000000000000000,  0.0000000000000000 ]
- atom:    1
  direction:
    [   0.0000000000000000,  1.0000000000000000,  0.0000000000000000 ]
  displacement:
    [   0.0000024767397259,  0.0099999996932880,  0.0000000000000000 ]
- atom:    1
  direction:
    [   0.0000000000000000, -1.0000000000000000,  0.0000000000000000 ]
  displacement:
    [  -0.0000024767397259, -0.0099999996932880,  0.0000000000000000 ]
- atom:    1
  direction:
    [   0.0000000000000000,  0.0000000000000000,  1.0000000000000000 ]
  displacement:
    [   0.0002192205163188, -0.0000005736116356,  0.0099975968130444 ]
- atom:    1
  direction:
    [   0.0000000000000000,  0.0000000000000000, -1.0000000000000000 ]
  displacement:
    [  -0.0002192205163188,  0.0000005736116356, -0.0099975968130444 ]
- atom:    9
  direction:
    [   1.0000000000000000,  0.0000000000000000,  0.0000000000000000 ]
  displacement:
    [   0.0100000000000000,  0.0000000000000000,  0.0000000000000000 ]
- atom:    9
  direction:
    [  -1.0000000000000000,  0.0000000000000000,  0.0000000000000000 ]
  displacement:
    [  -0.0100000000000000,  0.0000000000000000,  0.0000000000000000 ]
- atom:    9
  direction:
    [   0.0000000000000000,  1.0000000000000000,  0.0000000000000000 ]
  displacement:
    [   0.0000024767397259,  0.0099999996932880,  0.0000000000000000 ]
- atom:    9
  direction:
    [   0.0000000000000000, -1.0000000000000000,  0.0000000000000000 ]
  displacement:
    [  -0.0000024767397259, -0.0099999996932880,  0.0000000000000000 ]
- atom:    9
  direction:
    [   0.0000000000000000,  0.0000000000000000,  1.0000000000000000 ]
  displacement:
    [   0.0002192205163188, -0.0000005736116356,  0.0099975968130444 ]
- atom:    9
  direction:
    [   0.0000000000000000,  0.0000000000000000, -1.0000000000000000 ]
  displacement:
    [  -0.0002192205163188,  0.0000005736116356, -0.0099975968130444 ]
- atom:   17
  direction:
    [   1.0000000000000000,  0.0000000000000000,  0.0000000000000000 ]
  displacement:
    [   0.0100000000000000,  0.0000000000000000,  0.0000000000000000 ]
- atom:   17
  direction:
    [  -1.0000000000000000,  0.0000000000000000,  0.0000000000000000 ]
  displacement:
    [  -0.0100000000000000,  0.0000000000000000,  0.0000000000000000 ]
- atom:   17
  direction:
    [   0.0000000000000000,  1.0000000000000000,  0.0000000000000000 ]
  displacement:
    [   0.0000024767397259,  0.0099999996932880,  0.0000000000000000 ]
- atom:   17
  direction:
    [   0.0000000000000000, -1.0000000000000000,  0.0000000000000000 ]
  displacement:
    [  -0.0000024767397259, -0.0099999996932880,  0.0000000000000000 ]
- atom:   17
  direction:
    [   0.0000000000000000,  0.0000000000000000,  1.0000000000000000 ]
  displacement:
    [   0.0002192205163188, -0.0000005736116356,  0.0099975968130444 ]
- atom:   17
  direction:
    [   0.0000000000000000,  0.0000000000000000, -1.0000000000000000 ]
  displacement:
    [  -0.0002192205163188,  0.0000005736116356, -0.0099975968130444 ]
- atom:   25
  direction:
    [   1.0000000000000000,  0.0000000000000000,  0.0000000000000000 ]
  displacement:
    [   0.0100000000000000,  0.0000000000000000,  0.0000000000000000 ]
- atom:   25
  direction:
    [  -1.0000000000000000,  0.0000000000000000,  0.0000000000000000 ]
  displacement:
    [  -0.0100000000000000,  0.0000000000000000,  0.0000000000000000 ]
- atom:   25
  direction:
    [   0.0000000000000000,  1.0000000000000000,  0.0000000000000000 ]
  displacement:
    [   0.0000024767397259,  0.0099999996932880,  0.0000000000000000 ]
- atom:   25
  direction:
    [   0.0000000000000000, -1.0000000000000000,  0.0000000000000000 ]
  displacement:
    [  -0.0000024767397259, -0.0099999996932880,  0.0000000000000000 ]
- atom:   25
  direction:
    [   0.0000000000000000,  0.0000000000000000,  1.0000000000000000 ]
  displacement:
    [   0.0002192205163188, -0.0000005736116356,  0.0099975968130444 ]
- atom:   25
  direction:
    [   0.0000000000000000,  0.0000000000000000, -1.0000000000000000 ]
  displacement:
    [  -0.0002192205163188,  0.0000005736116356, -0.0099975968130444 ]
- atom:   33
  direction:
    [   1.0000000000000000,  0.0000000000000000,  0.0000000000000000 ]
  displacement:
    [   0.0100000000000000,  0.0000000000000000,  0.0000000000000000 ]
- atom:   33
  direction:
    [  -1.0000000000000000,  0.0000000000000000,  0.0000000000000000 ]
  displacement:
    [  -0.0100000000000000,  0.0000000000000000,  0.0000000000000000 ]
- atom:   33
  direction:
    [   0.0000000000000000,  1.0000000000000000,  0.0000000000000000 ]
  displacement:
    [   0.0000024767397259,  0.0099999996932880,  0.0000000000000000 ]
- atom:   33
  direction:
    [   0.0000000000000000, -1.0000000000000000,  0.0000000000000000 ]
  displacement:
    [  -0.0000024767397259, -0.0099999996932880,  0.0000000000000000 ]
- atom:   33
  direction:
    [   0.0000000000000000,  0.0000000000000000,  1.0000000000000000 ]
  displacement:
    [   0.0002192205163188, -0.0000005736116356,  0.0099975968130444 ]
- atom:   33
  direction:
    [   0.0000000000000000,  0.0000000000000000, -1.0000000000000000 ]
  displacement:
    [  -0.0002192205163188,  0.0000005736116356, -0.0099975968130444 ]
- atom:   41
  direction:
    [   1.0000000000000000,  0.0000000000000000,  0.0000000000000000 ]
  displacement:
    [   0.0100000000000000,  0.0000000000000000,  0.0000000000000000 ]
- atom:   41
  direction:
    [  -1.0000000000000000,  0.0000000000000000,  0.0000000000000000 ]
  displacement:
    [  -0.0100000000000000,  0.0000000000000000,  0.0000000000000000 ]
- atom:   41
  direction:
    [   0.0000000000000000,  1.0000000000000000,  0.0000000000000000 ]
  displacement:
    [   0.0000024767397259,  0.0099999996932880,  0.0000000000000000 ]
- atom:   41
  direction:
    [   0.0000000000000000, -1.0000000000000000,  0.0000000000000000 ]
  displacement:
    [  -0.0000024767397259, -0.0099999996932880,  0.0000000000000000 ]
- atom:   41
  direction:
    [   0.0000000000000000,  0.0000000000000000,  1.0000000000000000 ]
  displacement:
    [   0.0002192205163188, -0.0000005736116356,  0.0099975968130444 ]
- atom:   41
  direction:
    [   0.0000000000000000,  0.0000000000000000, -1.0000000000000000 ]
  displacement:
    [  -0.0002192205163188,  0.0000005736116356, -0.0099975968130444 ]
- atom:   49
  direction:
    [   1.0000000000000000,  0.0000000000000000,  0.0000000000000000 ]
  displacement:
    [   0.0100000000000000,  0.0000000000000000,  0.0000000000000000 ]
- atom:   49
  direction:
    [  -1.0000000000000000,  0.0000000000000000,  0.0000000000000000 ]
  displacement:
    [  -0.0100000000000000,  0.0000000000000000,  0.0000000000000000 ]
- atom:   49
  direction:
    [   0.0000000000000000,  1.0000000000000000,  0.0000000000000000 ]
  displacement:
    [   0.0000024767397259,  0.0099999996932880,  0.0000000000000000 ]
- atom:   49
  direction:
    [   0.0000000000000000, -1.0000000000000000,  0.0000000000000000 ]
  displacement:
    [  -0.0000024767397259, -0.0099999996932880,  0.0000000000000000 ]
- atom:   49
  direction:
    [   0.0000000000000000,  0.0000000000000000,  1.0000000000000000 ]
  displacement:
    [   0.0002192205163188, -0.0000005736116356,  0.0099975968130444 ]
- atom:   49
  direction:
    [   0.0000000000000000,  0.0000000000000000, -1.0000000000000000 ]
  displacement:
    [  -0.0002192205163188,  0.0000005736116356, -0.0099975968130444 ]
- atom:   57
  direction:
    [   1.0000000000000000,  0.0000000000000000,  0.0000000000000000 ]
  displacement:
    [   0.0100000000000000,  0.0000000000000000,  0.0000000000000000 ]
- atom:   57
  direction:
    [  -1.0000000000000000,  0.0000000000000000,  0.0000000000000000 ]
  displacement:
    [  -0.0100000000000000,  0.0000000000000000,  0.0000000000000000 ]
- atom:   57
  direction:
    [   0.0000000000000000,  1.0000000000000000,  0.0000000000000000 ]
  displacement:
    [   0.0000024767397259,  0.0099999996932880,  0.0000000000000000 ]
- atom:   57
  direction:
    [   0.0000000000000000, -1.0000000000000000,  0.0000000000000000 ]
  displacement:
    [  -0.0000024767397259, -0.0099999996932880,  0.0000000000000000 ]
- atom:   57
  direction:
    [   0.0000000000000000,  0.0000000000000000,  1.0000000000000000 ]
  displacement:
    [   0.0002192205163188, -0.0000005736116356,  0.0099975968130444 ]
- atom:   57
  direction:
    [   0.0000000000000000,  0.0000000000000000, -1.0000000000000000 ]
  displacement:
    [  -0.0002192205163188,  0.0000005736116356, -0.0099975968130444 ]
- atom:   65
  direction:
    [   1.0000000000000000,  0.0000000000000000,  0.0000000000000000 ]
  displacement:
    [   0.0100000000000000,  0.0000000000000000,  0.0000000000000000 ]
- atom:   65
  direction:
    [  -1.0000000000000000,  0.0000000000000000,  0.0000000000000000 ]
  displacement:
    [  -0.0100000000000000,  0.0000000000000000,  0.0000000000000000 ]
- atom:   65
  direction:
    [   0.0000000000000000,  1.0000000000000000,  0.0000000000000000 ]
  displacement:
    [   0.0000024767397259,  0.0099999996932880,  0.0000000000000000 ]
- atom:   65
  direction:
    [   0.0000000000000000, -1.0000000000000000,  0.0000000000000000 ]
  displacement:
    [  -0.0000024767397259, -0.0099999996932880,  0.0000000000000000 ]
- atom:   65
  direction:
    [   0.0000000000000000,  0.0000000000000000,  1.0000000000000000 ]
  displacement:
    [   0.0002192205163188, -0.0000005736116356,  0.0099975968130444 ]
- atom:   65
  direction:
    [   0.0000000000000000,  0.0000000000000000, -1.0000000000000000 ]
  displacement:
    [  -0.0002192205163188,  0.0000005736116356, -0.0099975968130444 ]
- atom:   73
  direction:
    [   1.0000000000000000,  0.0000000000000000,  0.0000000000000000 ]
  displacement:
    [   0.0100000000000000,  0.0000000000000000,  0.0000000000000000 ]
- atom:   73
  direction:
    [  -1.0000000000000000,  0.0000000000000000,  0.0000000000000000 ]
  displacement:
    [  -0.0100000000000000,  0.0000000000000000,  0.0000000000000000 ]
- atom:   73
  direction:
    [   0.0000000000000000,  1.0000000000000000,  0.0000000000000000 ]
  displacement:
    [   0.0000024767397259,  0.0099999996932880,  0.0000000000000000 ]
- atom:   73
  direction:
    [   0.0000000000000000, -1.0000000000000000,  0.0000000000000000 ]
  displacement:
    [  -0.0000024767397259, -0.0099999996932880,  0.0000000000000000 ]
- atom:   73
  direction:
    [   0.0000000000000000,  0.0000000000000000,  1.0000000000000000 ]
  displacement:
    [   0.0002192205163188, -0.0000005736116356,  0.0099975968130444 ]
- atom:   73
  direction:
    [   0.0000000000000000,  0.0000000000000000, -1.0000000000000000 ]
  displacement:
    [  -0.0002192205163188,  0.0000005736116356, -0.0099975968130444 ]
- atom:   81
  direction:
    [   1.0000000000000000,  0.0000000000000000,  0.0000000000000000 ]
  displacement:
    [   0.0100000000000000,  0.0000000000000000,  0.0000000000000000 ]
- atom:   81
  direction:
    [  -1.0000000000000000,  0.0000000000000000,  0.0000000000000000 ]
  displacement:
    [  -0.0100000000000000,  0.0000000000000000,  0.0000000000000000 ]
- atom:   81
  direction:
    [   0.0000000000000000,  1.0000000000000000,  0.0000000000000000 ]
  displacement:
    [   0.0000024767397259,  0.0099999996932880,  0.0000000000000000 ]
- atom:   81
  direction:
    [   0.0000000000000000, -1.0000000000000000,  0.0000000000000000 ]
  displacement:
    [  -0.0000024767397259, -0.0099999996932880,  0.0000000000000000 ]
- atom:   81
  direction:
    [   0.0000000000000000,  0.0000000000000000,  1.0000000000000000 ]
  displacement:
    [   0.0002192205163188, -0.0000005736116356,  0.0099975968130444 ]
- atom:   81
  direction:
    [   0.0000000000000000,  0.0000000000000000, -1.0000000000000000 ]
  displacement:
    [  -0.0002192205163188,  0.0000005736116356, -0.0099975968130444 ]
- atom:   89
  direction:
    [   1.0000000000000000,  0.0000000000000000,  0.0000000000000000 ]
  displacement:
    [   0.0100000000000000,  0.0000000000000000,  0.0000000000000000 ]
- atom:   89
  direction:
    [  -1.0000000000000000,  0.0000000000000000,  0.0000000000000000 ]
  displacement:
    [  -0.0100000000000000,  0.0000000000000000,  0.0000000000000000 ]
- atom:   89
  direction:
    [   0.0000000000000000,  1.0000000000000000,  0.0000000000000000 ]
  displacement:
    [   0.0000024767397259,  0.0099999996932880,  0.0000000000000000 ]
- atom:   89
  direction:
    [   0.0000000000000000, -1.0000000000000000,  0.0000000000000000 ]
  displacement:
    [  -0.0000024767397259, -0.0099999996932880,  0.0000000000000000 ]
- atom:   89
  direction:
    [   0.0000000000000000,  0.0000000000000000,  1.0000000000000000 ]
  displacement:
    [   0.0002192205163188, -0.0000005736116356,  0.0099975968130444 ]
- atom:   89
  direction:
    [   0.0000000000000000,  0.0000000000000000, -1.0000000000000000 ]
  displacement:
    [  -0.0002192205163188,  0.0000005736116356, -0.0099975968130444 ]
lattice:
- [   12.326045036400000,   0.000000000000000,   0.000000000000000 ]
- [    0.003023699800000,  12.208387000400000,   0.000000000000000 ]
- [    0.273877000200000,  -0.000716625600000,  12.490217021399999 ]
atoms:
- symbol: C  # 1
  position: [   0.19451527300000,  0.24986314750000,  0.22700363400000 ]
- symbol: C  # 2
  position: [   0.69451527300000,  0.24986314750000,  0.22700363400000 ]
- symbol: C  # 3
  position: [   0.19451527300000,  0.74986314750000,  0.22700363400000 ]
- symbol: C  # 4
  position: [   0.69451527300000,  0.74986314750000,  0.22700363400000 ]
- symbol: C  # 5
  position: [   0.19451527300000,  0.24986314750000,  0.72700363400000 ]
- symbol: C  # 6
  position: [   0.69451527300000,  0.24986314750000,  0.72700363400000 ]
- symbol: C  # 7
  position: [   0.19451527300000,  0.74986314750000,  0.72700363400000 ]
- symbol: C  # 8
  position: [   0.69451527300000,  0.74986314750000,  0.72700363400000 ]
- symbol: N  # 9
  position: [   0.30258187650000,  0.24993968000000,  0.27619484050000 ]
- symbol: N  # 10
  position: [   0.80258187650000,  0.24993968000000,  0.27619484050000 ]
- symbol: N  # 11
  position: [   0.30258187650000,  0.74993968000000,  0.27619484050000 ]
- symbol: N  # 12
  position: [   0.80258187650000,  0.74993968000000,  0.27619484050000 ]
- symbol: N  # 13
  position: [   0.30258187650000,  0.24993968000000,  0.77619484050000 ]
- symbol: N  # 14
  position: [   0.80258187650000,  0.24993968000000,  0.77619484050000 ]
- symbol: N  # 15
  position: [   0.30258187650000,  0.74993968000000,  0.77619484050000 ]
- symbol: N  # 16
  position: [   0.80258187650000,  0.74993968000000,  0.77619484050000 ]
- symbol: H  # 17
  position: [   0.20546336450000,  0.24978342650000,  0.13945236800000 ]
- symbol: H  # 18
  position: [   0.70546336450000,  0.24978342650000,  0.13945236800000 ]
- symbol: H  # 19
  position: [   0.20546336450000,  0.74978342650000,  0.13945236800000 ]
- symbol: H  # 20
  position: [   0.70546336450000,  0.74978342650000,  0.13945236800000 ]
- symbol: H  # 21
  position: [   0.20546336450000,  0.24978342650000,  0.63945236800000 ]
- symbol: H  # 22
  position: [   0.70546336450000,  0.24978342650000,  0.63945236800000 ]
- symbol: H  # 23
  position: [   0.20546336450000,  0.74978342650000,  0.63945236800000 ]
- symbol: H  # 24
  position: [   0.70546336450000,  0.74978342650000,  0.63945236800000 ]
- symbol: H  # 25
  position: [   0.15014807900000,  0.32379764300000,  0.25278317950000 ]
- symbol: H  # 26
  position: [   0.65014807900000,  0.32379764300000,  0.25278317950000 ]
- symbol: H  # 27
  position: [   0.15014807900000,  0.82379764300000,  0.25278317950000 ]
- symbol: H  # 28
  position: [   0.65014807900000,  0.82379764300000,  0.25278317950000 ]
- symbol: H  # 29
  position: [   0.15014807900000,  0.32379764300000,  0.75278317950000 ]
- symbol: H  # 30
  position: [   0.65014807900000,  0.32379764300000,  0.75278317950000 ]
- symbol: H  # 31
  position: [   0.15014807900000,  0.82379764300000,  0.75278317950000 ]
- symbol: H  # 32
  position: [   0.65014807900000,  0.82379764300000,  0.75278317950000 ]
- symbol: H  # 33
  position: [   0.15025092650000,  0.17592889050000,  0.25289589150000 ]
- symbol: H  # 34
  position: [   0.65025092650000,  0.17592889050000,  0.25289589150000 ]
- symbol: H  # 35
  position: [   0.15025092650000,  0.67592889050000,  0.25289589150000 ]
- symbol: H  # 36
  position: [   0.65025092650000,  0.67592889050000,  0.25289589150000 ]
- symbol: H  # 37
  position: [   0.15025092650000,  0.17592889050000,  0.75289589150000 ]
- symbol: H  # 38
  position: [   0.65025092650000,  0.17592889050000,  0.75289589150000 ]
- symbol: H  # 39
  position: [   0.15025092650000,  0.67592889050000,  0.75289589150000 ]
- symbol: H  # 40
  position: [   0.65025092650000,  0.67592889050000,  0.75289589150000 ]
- symbol: H  # 41
  position: [   0.34781572200000,  0.31917676350000,  0.25391912450000 ]
- symbol: H  # 42
  position: [   0.84781572200000,  0.31917676350000,  0.25391912450000 ]
- symbol: H  # 43
  position: [   0.34781572200000,  0.81917676350000,  0.25391912450000 ]
- symbol: H  # 44
  position: [   0.84781572200000,  0.81917676350000,  0.25391912450000 ]
- symbol: H  # 45
  position: [   0.34781572200000,  0.31917676350000,  0.75391912450000 ]
- symbol: H  # 46
  position: [   0.84781572200000,  0.31917676350000,  0.75391912450000 ]
- symbol: H  # 47
  position: [   0.34781572200000,  0.81917676350000,  0.75391912450000 ]
- symbol: H  # 48
  position: [   0.84781572200000,  0.81917676350000,  0.75391912450000 ]
- symbol: H  # 49
  position: [   0.34791967250000,  0.18074980400000,  0.25389114000000 ]
- symbol: H  # 50
  position: [   0.84791967250000,  0.18074980400000,  0.25389114000000 ]
- symbol: H  # 51
  position: [   0.34791967250000,  0.68074980400000,  0.25389114000000 ]
- symbol: H  # 52
  position: [   0.84791967250000,  0.68074980400000,  0.25389114000000 ]
- symbol: H  # 53
  position: [   0.34791967250000,  0.18074980400000,  0.75389114000000 ]
- symbol: H  # 54
  position: [   0.84791967250000,  0.18074980400000,  0.75389114000000 ]
- symbol: H  # 55
  position: [   0.34791967250000,  0.68074980400000,  0.75389114000000 ]
- symbol: H  # 56
  position: [   0.84791967250000,  0.68074980400000,  0.75389114000000 ]
- symbol: H  # 57
  position: [   0.29847443100000,  0.24989792700000,  0.35947644700000 ]
- symbol: H  # 58
  position: [   0.79847443100000,  0.24989792700000,  0.35947644700000 ]
- symbol: H  # 59
  position: [   0.29847443100000,  0.74989792700000,  0.35947644700000 ]
- symbol: H  # 60
  position: [   0.79847443100000,  0.74989792700000,  0.35947644700000 ]
- symbol: H  # 61
  position: [   0.29847443100000,  0.24989792700000,  0.85947644700000 ]
- symbol: H  # 62
  position: [   0.79847443100000,  0.24989792700000,  0.85947644700000 ]
- symbol: H  # 63
  position: [   0.29847443100000,  0.74989792700000,  0.85947644700000 ]
- symbol: H  # 64
  position: [   0.79847443100000,  0.74989792700000,  0.85947644700000 ]
- symbol: Pb # 65
  position: [   0.47628071900000,  0.49996918450000,  0.48737788200000 ]
- symbol: Pb # 66
  position: [   0.97628071900000,  0.49996918450000,  0.48737788200000 ]
- symbol: Pb # 67
  position: [   0.47628071900000,  0.99996918450000,  0.48737788200000 ]
- symbol: Pb # 68
  position: [   0.97628071900000,  0.99996918450000,  0.48737788200000 ]
- symbol: Pb # 69
  position: [   0.47628071900000,  0.49996918450000,  0.98737788200000 ]
- symbol: Pb # 70
  position: [   0.97628071900000,  0.49996918450000,  0.98737788200000 ]
- symbol: Pb # 71
  position: [   0.47628071900000,  0.99996918450000,  0.98737788200000 ]
- symbol: Pb # 72
  position: [   0.97628071900000,  0.99996918450000,  0.98737788200000 ]
- symbol: I  # 73
  position: [   0.45959523300000,  0.49997773750000,  0.23650734150000 ]
- symbol: I  # 74
  position: [   0.95959523300000,  0.49997773750000,  0.23650734150000 ]
- symbol: I  # 75
  position: [   0.45959523300000,  0.99997773750000,  0.23650734150000 ]
- symbol: I  # 76
  position: [   0.95959523300000,  0.99997773750000,  0.23650734150000 ]
- symbol: I  # 77
  position: [   0.45959523300000,  0.49997773750000,  0.73650734150000 ]
- symbol: I  # 78
  position: [   0.95959523300000,  0.49997773750000,  0.73650734150000 ]
- symbol: I  # 79
  position: [   0.45959523300000,  0.99997773750000,  0.73650734150000 ]
- symbol: I  # 80
  position: [   0.95959523300000,  0.99997773750000,  0.73650734150000 ]
- symbol: I  # 81
  position: [   0.45313420900000,  0.24999502300000,  0.01564500850000 ]
- symbol: I  # 82
  position: [   0.95313420900000,  0.24999502300000,  0.01564500850000 ]
- symbol: I  # 83
  position: [   0.45313420900000,  0.74999502300000,  0.01564500850000 ]
- symbol: I  # 84
  position: [   0.95313420900000,  0.74999502300000,  0.01564500850000 ]
- symbol: I  # 85
  position: [   0.45313420900000,  0.24999502300000,  0.51564500850000 ]
- symbol: I  # 86
  position: [   0.95313420900000,  0.24999502300000,  0.51564500850000 ]
- symbol: I  # 87
  position: [   0.45313420900000,  0.74999502300000,  0.51564500850000 ]
- symbol: I  # 88
  position: [   0.95313420900000,  0.74999502300000,  0.51564500850000 ]
- symbol: I  # 89
  position: [   0.22170989200000,  0.00051202350000,  0.45842015750000 ]
- symbol: I  # 90
  position: [   0.72170989200000,  0.00051202350000,  0.45842015750000 ]
- symbol: I  # 91
  position: [   0.22170989200000,  0.50051202350000,  0.45842015750000 ]
- symbol: I  # 92
  position: [   0.72170989200000,  0.50051202350000,  0.45842015750000 ]
- symbol: I  # 93
  position: [   0.22170989200000,  0.00051202350000,  0.95842015750000 ]
- symbol: I  # 94
  position: [   0.72170989200000,  0.00051202350000,  0.95842015750000 ]
- symbol: I  # 95
  position: [   0.22170989200000,  0.50051202350000,  0.95842015750000 ]
- symbol: I  # 96
  position: [   0.72170989200000,  0.50051202350000,  0.95842015750000 ]
