96   
72   

1    
  0.0100000000000000   0.0000000000000000   0.0000000000000000
  -0.4550578500    0.0001144600    0.0439496000
  -0.0010221500   -0.0000339500   -0.0012642100
  -0.0012583600   -0.0000340000   -0.0013266900
  -0.0010622300   -0.0000337700   -0.0013021900
  -0.0011595200   -0.0000337300   -0.0013096400
  -0.0010906900   -0.0000339100   -0.0012649500
  -0.0011598100   -0.0000337500   -0.0013134500
  -0.0011040800   -0.0000338600   -0.0012929900
   0.1699879100    0.0000286100    0.0407264900
  -0.0040432300   -0.0000324500    0.0009642200
  -0.0038178900   -0.0000321900    0.0009578200
  -0.0041213400   -0.0000313600    0.0010182700
  -0.0038866100   -0.0000320000    0.0009415300
  -0.0040433400   -0.0000322000    0.0009264600
  -0.0038845100   -0.0000321400    0.0009583500
  -0.0039960800   -0.0000322700    0.0009517400
   0.0464144900    0.0001919800   -0.0278073500
   0.0001294800    0.0002178500   -0.0016426900
   0.0001428000    0.0002177300   -0.0016300500
   0.0001477600    0.0002177900   -0.0016450800
   0.0001070200    0.0002176500   -0.0016299800
   0.0002053000    0.0002177200   -0.0016509000
   0.0001484000    0.0002176400   -0.0016356100
   0.0001513500    0.0002177900   -0.0016404600
   0.0971575500   -0.1012813600   -0.0406942600
  -0.0003997900    0.0000944300   -0.0013951600
  -0.0004049300    0.0001087900   -0.0014006000
  -0.0003953200    0.0000581400   -0.0013697000
  -0.0004223200    0.0000745300   -0.0013801400
  -0.0004204800    0.0000854500   -0.0013612900
  -0.0004175000    0.0000798100   -0.0013691300
  -0.0004220800    0.0000739600   -0.0013788700
   0.0969768600    0.1016587400   -0.0408624000
  -0.0003981600    0.0004718000   -0.0014646200
  -0.0004034000    0.0004572700   -0.0014702800
  -0.0003936000    0.0005079600   -0.0014391900
  -0.0004205200    0.0004915400   -0.0014496400
  -0.0004188200    0.0004807900   -0.0014309400
  -0.0004158200    0.0004863900   -0.0014387600
  -0.0004203800    0.0004922300   -0.0014484200
   0.0187994700    0.0025470300    0.0074409000
  -0.0004809300    0.0007977000   -0.0002722200
  -0.0007239000    0.0006716900   -0.0002350200
  -0.0005220700    0.0009338800   -0.0002906200
  -0.0006517300    0.0008152600   -0.0001913600
  -0.0005689600    0.0007958500   -0.0002668400
  -0.0006504000    0.0007584500   -0.0002318900
  -0.0005767700    0.0008087200   -0.0002526900
   0.0190260200   -0.0021774500    0.0074579100
  -0.0003070200   -0.0004337100   -0.0002819600
  -0.0005499700   -0.0003078100   -0.0002444700
  -0.0003472400   -0.0005717700   -0.0003007000
  -0.0004776700   -0.0004518900   -0.0002009200
  -0.0003948600   -0.0004323200   -0.0002766000
  -0.0004764200   -0.0003946300   -0.0002414700
  -0.0004026200   -0.0004452000   -0.0002624300
  -0.0024682500    0.0001923300    0.0036031000
  -0.0016035700    0.0002052400   -0.0015722800
  -0.0016819300    0.0002047800   -0.0015656300
  -0.0016441200    0.0002050900   -0.0015719100
  -0.0017063500    0.0002046100   -0.0015097000
  -0.0016344400    0.0002050900   -0.0015303900
  -0.0017201000    0.0002046900   -0.0015613900
  -0.0016421400    0.0002050800   -0.0015360300
   0.0008149300    0.0006060100    0.0000902500
   0.0008525400   -0.0001510400   -0.0004891900
   0.0008132900   -0.0004184500    0.0000914400
   0.0008503500    0.0003368500   -0.0004877800
   0.0006819700    0.0000622600   -0.0005027200
   0.0009926900   -0.0000342300    0.0000110700
   0.0006809300    0.0001243600   -0.0005034100
   0.0009933300    0.0002197300    0.0000091600
   0.0000622600   -0.0019461700    0.0110849100
   0.0011697400   -0.0014315100    0.0111260000
   0.0000599600    0.0000154900    0.0110838000
   0.0011725000   -0.0005008500    0.0111266400
   0.0008155800   -0.0010161300    0.0109625100
   0.0007534200   -0.0009537100    0.0110252000
   0.0008158000   -0.0009178500    0.0109623000
   0.0007534100   -0.0009798700    0.0110249900
   0.0047068300    0.0008548100   -0.0013195100
   0.0046325300    0.0008541900   -0.0012293700
   0.0041957100    0.0008543200   -0.0013437500
   0.0041177500    0.0008544200   -0.0014225700
   0.0033242400    0.0008545800   -0.0022459500
   0.0041334200    0.0008540900   -0.0013821900
   0.0041838100    0.0008548500   -0.0014600600
   0.0041547400    0.0008543900   -0.0014058200
   0.0031473500   -0.0009242500   -0.0025777200
   0.0026051900   -0.0012569200   -0.0025232900
   0.0031419100   -0.0016012200   -0.0025746800
   0.0026040900   -0.0012775400   -0.0025232100
   0.0028639700   -0.0013750700   -0.0026710900
   0.0026696600   -0.0012815000   -0.0025283200
   0.0028647900   -0.0011598800   -0.0026695200
   0.0026691900   -0.0012529800   -0.0025283300

1    
 -0.0100000000000000   0.0000000000000000   0.0000000000000000
   0.4409846800   -0.0002076000   -0.0568352900
  -0.0012393100   -0.0000338000   -0.0013429500
  -0.0010014700   -0.0000337500   -0.0012793500
  -0.0011978400   -0.0000340100   -0.0013049500
  -0.0010997100   -0.0000340500   -0.0012973600
  -0.0011714700   -0.0000338300   -0.0013408000
  -0.0010996000   -0.0000340700   -0.0012932400
  -0.0011560400   -0.0000339000   -0.0013137000
  -0.1672135900   -0.0000850900   -0.0338743700
  -0.0038816900   -0.0000319000    0.0009627300
  -0.0041100100   -0.0000322300    0.0009697600
  -0.0038037200   -0.0000330200    0.0009096000
  -0.0040405800   -0.0000323700    0.0009863800
  -0.0038792100   -0.0000321600    0.0010051300
  -0.0040417100   -0.0000323500    0.0009694700
  -0.0039291900   -0.0000321700    0.0009763300
  -0.0464144800    0.0002454600    0.0264945500
   0.0001628200    0.0002177100   -0.0016281300
   0.0001504000    0.0002178300   -0.0016407700
   0.0001452500    0.0002177700   -0.0016262400
   0.0001859000    0.0002179100   -0.0016413900
   0.0000885000    0.0002178400   -0.0016199600
   0.0001447700    0.0002179100   -0.0016355100
   0.0001417100    0.0002177700   -0.0016306800
  -0.0979132600    0.1046229200    0.0393318000
  -0.0004526600    0.0000441600   -0.0013693100
  -0.0004459500    0.0000308200   -0.0013640000
  -0.0004567900    0.0000816800   -0.0013946400
  -0.0004289500    0.0000651600   -0.0013845700
  -0.0004312500    0.0000540000   -0.0014032000
  -0.0004339100    0.0000597100   -0.0013953300
  -0.0004297800    0.0000655800   -0.0013856400
  -0.0977201100   -0.1038511500    0.0393601600
  -0.0004509500    0.0005219200   -0.0014390200
  -0.0004441500    0.0005354300   -0.0014334700
  -0.0004551600    0.0004845600   -0.0014643200
  -0.0004274000    0.0005011100   -0.0014542300
  -0.0004295800    0.0005121200   -0.0014727300
  -0.0004322500    0.0005064000   -0.0014648700
  -0.0004281400    0.0005005700   -0.0014552600
  -0.0193822700   -0.0007926300   -0.0077176700
  -0.0007107700    0.0007836900   -0.0002310800
  -0.0004647800    0.0009102500   -0.0002705100
  -0.0006683000    0.0006456300   -0.0002145600
  -0.0005376700    0.0007647100   -0.0003143400
  -0.0006202600    0.0007860200   -0.0002398300
  -0.0005389700    0.0008219000   -0.0002735000
  -0.0006128700    0.0007714400   -0.0002526500
  -0.0192594300    0.0011502300   -0.0077539000
  -0.0005364600   -0.0004205200   -0.0002407300
  -0.0002904900   -0.0005469800   -0.0002804600
  -0.0004948700   -0.0002806400   -0.0002238800
  -0.0003634900   -0.0004009400   -0.0003241700
  -0.0004461500   -0.0004224100   -0.0002494600
  -0.0003647200   -0.0004586000   -0.0002833200
  -0.0004388300   -0.0004077600   -0.0002622900
  -0.0008577200    0.0002174700   -0.0065771600
  -0.0017268200    0.0002047900   -0.0015402000
  -0.0016488500    0.0002052500   -0.0015477800
  -0.0016865100    0.0002049600   -0.0015407800
  -0.0016234200    0.0002054300   -0.0016027600
  -0.0017021700    0.0002049400   -0.0015882100
  -0.0016100900    0.0002053500   -0.0015521700
  -0.0016886800    0.0002049600   -0.0015775800
   0.0007463500   -0.0004238500   -0.0005359000
   0.0007171300    0.0003360800    0.0000469000
   0.0007479300    0.0006090000   -0.0005369800
   0.0007193800   -0.0001491600    0.0000454200
   0.0008801600    0.0001219600    0.0000639400
   0.0005753600    0.0002338300   -0.0004558200
   0.0008811300    0.0000641000    0.0000645400
   0.0005747000   -0.0000466300   -0.0004539900
   0.0014785700    0.0000006200    0.0109999800
   0.0003874900   -0.0005079800    0.0109578600
   0.0014808000   -0.0019374500    0.0110010400
   0.0003848300   -0.0014272500    0.0109573300
   0.0007379700   -0.0009174900    0.0111247700
   0.0007994700   -0.0009811000    0.0110631300
   0.0007377000   -0.0010163400    0.0111249000
   0.0007995700   -0.0009529100    0.0110633200
   0.0035956900    0.0008539900   -0.0015034200
   0.0036885800    0.0008545500   -0.0015708200
   0.0041064500    0.0008543900   -0.0014826300
   0.0041842500    0.0008543100   -0.0014029500
   0.0049673300    0.0008542400   -0.0005889900
   0.0041691300    0.0008547000   -0.0014465000
   0.0041182500    0.0008538700   -0.0013651500
   0.0041469200    0.0008542800   -0.0014199600
   0.0023849500   -0.0016002400   -0.0024867200
   0.0029307600   -0.0012777500   -0.0025339800
   0.0023903400   -0.0009426800   -0.0024894900
   0.0029317800   -0.0012565400   -0.0025340200
   0.0026661700   -0.0011565400   -0.0023842900
   0.0028677300   -0.0012516800   -0.0025286200
   0.0026654200   -0.0013771200   -0.0023858700
   0.0028682000   -0.0012826100   -0.0025286500

1    
  0.0000024767397259   0.0099999996932880   0.0000000000000000
   0.0071401500   -0.5564012900   -0.0072626800
  -0.0011293900    0.0000057100   -0.0013031300
  -0.0011311200    0.0000217100   -0.0013038900
  -0.0011294800   -0.0000759300   -0.0013034800
  -0.0011304200   -0.0000249400   -0.0013038700
  -0.0011298100   -0.0000331200   -0.0013038000
  -0.0011302000   -0.0000440500   -0.0013035100
  -0.0011300200   -0.0000349100   -0.0013034900
  -0.0044218700    0.0857078400    0.0011985600
  -0.0039679400   -0.0000168700    0.0009610600
  -0.0039669500    0.0000594800    0.0009615400
  -0.0039695400   -0.0002406100    0.0009619600
  -0.0039672300   -0.0000510100    0.0009621100
  -0.0039686400   -0.0000333200    0.0009607900
  -0.0039674600   -0.0000012200    0.0009613000
  -0.0039681700   -0.0000305900    0.0009613400
  -0.0002573800    0.0424346200   -0.0002150400
   0.0001470400    0.0002133200   -0.0016345500
   0.0001468000    0.0001989000   -0.0016343900
   0.0001468700    0.0002223500   -0.0016345000
   0.0001467400    0.0002005200   -0.0016345300
   0.0001469100    0.0002172100   -0.0016345000
   0.0001468600    0.0002369800   -0.0016343900
   0.0001469400    0.0002180200   -0.0016344600
  -0.0968721700    0.2219357500    0.0683805300
  -0.0004538700    0.0000714800   -0.0013877400
  -0.0004409700    0.0000795600   -0.0013815900
  -0.0003863000    0.0000643000   -0.0013697300
  -0.0004212500    0.0000704100   -0.0013705900
  -0.0004250500    0.0000693300   -0.0013822000
  -0.0004337400    0.0000653500   -0.0014006100
  -0.0004242400    0.0000679000   -0.0013821600
   0.0884324400    0.2136843800   -0.0668466800
  -0.0003945700    0.0005005200   -0.0014462400
  -0.0004076100    0.0005078400   -0.0014528200
  -0.0004614100    0.0004931900   -0.0014641400
  -0.0004275400    0.0004994400   -0.0014634500
  -0.0004233300    0.0004979600   -0.0014518100
  -0.0004151300    0.0004939100   -0.0014334400
  -0.0004240400    0.0004962400   -0.0014518500
   0.0221660700   -0.0043587200    0.0131308900
  -0.0006968700    0.0007158200   -0.0002453800
  -0.0007146200    0.0006793800   -0.0002193100
  -0.0004759800    0.0009679700   -0.0002933700
  -0.0005918400    0.0008020000   -0.0002428400
  -0.0005934600    0.0007914500   -0.0002540600
  -0.0005911400    0.0007782800   -0.0002703100
  -0.0005926100    0.0007919500   -0.0002536100
  -0.0230196000   -0.0056148700   -0.0137064700
  -0.0003121000   -0.0005017200   -0.0002703200
  -0.0002996400   -0.0005390600   -0.0002962200
  -0.0005346800   -0.0002555400   -0.0002233900
  -0.0004211500   -0.0004169700   -0.0002728800
  -0.0004192000   -0.0004267600   -0.0002620000
  -0.0004213500   -0.0004417900   -0.0002453600
  -0.0004196900   -0.0004283900   -0.0002621100
  -0.0016313700    0.0006773700   -0.0015465400
  -0.0016641100    0.0002010700   -0.0015549100
  -0.0016646900    0.0002351200   -0.0015549400
  -0.0016648200    0.0002065400   -0.0015550000
  -0.0016652700    0.0002456800   -0.0015548300
  -0.0016635800    0.0002121900   -0.0015535600
  -0.0016653000    0.0001449200   -0.0015547600
  -0.0016646800    0.0002009000   -0.0015546300
   0.0008578700    0.0000471400   -0.0004252000
   0.0005810600    0.0002405700    0.0001109700
   0.0007124900    0.0000511100   -0.0000113700
   0.0009804000    0.0002493300   -0.0005584600
   0.0006466900    0.0000986700   -0.0000163500
   0.0009202100    0.0001131400   -0.0004577500
   0.0009216200    0.0001005700   -0.0004312500
   0.0006438800    0.0001199400    0.0000204700
   0.0008809600   -0.0002403700    0.0108592800
   0.0003291300   -0.0007192400    0.0110447000
   0.0006539900   -0.0002137300    0.0112315600
   0.0012263400   -0.0007193000    0.0110441500
   0.0007748700   -0.0009749400    0.0110148100
   0.0007727000   -0.0009645900    0.0110214100
   0.0007774600   -0.0009757600    0.0110740500
   0.0007808000   -0.0009658600    0.0110675700
   0.0041500700    0.0006877800   -0.0014119100
   0.0041485600    0.0008466700   -0.0014160500
   0.0041507800    0.0009643500   -0.0014124300
   0.0041506500    0.0008411200   -0.0014136700
   0.0041521800    0.0007326400   -0.0014119600
   0.0041496200    0.0009210300   -0.0014111700
   0.0041503100    0.0008863700   -0.0014136200
   0.0041510100    0.0007944500   -0.0014130600
   0.0027520300   -0.0009425700   -0.0029787200
   0.0027492000   -0.0012656000   -0.0025362900
   0.0027826600   -0.0009625000   -0.0021072300
   0.0027825700   -0.0012647800   -0.0025216500
   0.0028004000   -0.0009760000   -0.0022835700
   0.0027379000   -0.0012695600   -0.0025243200
   0.0027361400   -0.0009847100   -0.0027638700
   0.0027932200   -0.0012685600   -0.0025330800

1    
 -0.0000024767397259  -0.0099999996932880   0.0000000000000000
   0.0070374400    0.5563449200   -0.0073195000
  -0.0011316000   -0.0000735500   -0.0013038900
  -0.0011331900   -0.0000895700   -0.0013050400
  -0.0011321100    0.0000081400   -0.0013048600
  -0.0011331300   -0.0000429100   -0.0013050100
  -0.0011321000   -0.0000347000   -0.0013048000
  -0.0011328400   -0.0000238800   -0.0013045200
  -0.0011325400   -0.0000329600   -0.0013045500
  -0.0045841100   -0.0857723100    0.0011332000
  -0.0039615300   -0.0000475300    0.0009631600
  -0.0039605200   -0.0001239500    0.0009639200
  -0.0039634500    0.0001760900    0.0009647500
  -0.0039609000   -0.0000133600    0.0009645800
  -0.0039625200   -0.0000310500    0.0009638400
  -0.0039611700   -0.0000632600    0.0009644100
  -0.0039620000   -0.0000338300    0.0009642000
  -0.0002094700   -0.0419951300   -0.0006028500
   0.0001467100    0.0002221600   -0.0016348200
   0.0001463700    0.0002365800   -0.0016346300
   0.0001465100    0.0002131600   -0.0016347900
   0.0001463900    0.0002349700   -0.0016347200
   0.0001464800    0.0002182800   -0.0016347200
   0.0001464600    0.0001984900   -0.0016347100
   0.0001464700    0.0002174500   -0.0016347900
   0.0885597000   -0.2131303200   -0.0665213900
  -0.0003971400    0.0000661000   -0.0013767400
  -0.0004100300    0.0000588400   -0.0013832100
  -0.0004638600    0.0000737200   -0.0013945000
  -0.0004297600    0.0000674300   -0.0013939500
  -0.0004256800    0.0000687900   -0.0013824800
  -0.0004173100    0.0000728700   -0.0013639700
  -0.0004265000    0.0000704500   -0.0013824300
  -0.0967329300   -0.2213652600    0.0685868200
  -0.0004531100    0.0004940600   -0.0014574000
  -0.0004401200    0.0004858500   -0.0014511200
  -0.0003853800    0.0005011300   -0.0014393200
  -0.0004201500    0.0004948800   -0.0014402500
  -0.0004241300    0.0004960700   -0.0014520200
  -0.0004326100    0.0004999900   -0.0014703100
  -0.0004233800    0.0004975500   -0.0014519000
  -0.0232224200    0.0059560700   -0.0137058000
  -0.0004860200    0.0008649700   -0.0002608600
  -0.0004736200    0.0009029900   -0.0002869100
  -0.0007087900    0.0006191100   -0.0002140500
  -0.0005951500    0.0007813200   -0.0002637300
  -0.0005930800    0.0007909800   -0.0002528100
  -0.0005956200    0.0008058700   -0.0002359100
  -0.0005935300    0.0007926800   -0.0002528900
   0.0223097200    0.0047449300    0.0131112600
  -0.0005225400   -0.0003520500   -0.0002553300
  -0.0005403900   -0.0003162600   -0.0002294000
  -0.0003018600   -0.0006045200   -0.0003034200
  -0.0004175500   -0.0004393800   -0.0002531100
  -0.0004190900   -0.0004286900   -0.0002642900
  -0.0004171500   -0.0004154100   -0.0002802700
  -0.0004182400   -0.0004292300   -0.0002638000
  -0.0016232200   -0.0002673300   -0.0015632700
  -0.0016642500    0.0002089000   -0.0015539600
  -0.0016652200    0.0001748400   -0.0015536500
  -0.0016649300    0.0002034300   -0.0015539800
  -0.0016656000    0.0001642900   -0.0015553700
  -0.0016637400    0.0001978100   -0.0015532900
  -0.0016652900    0.0002650500   -0.0015546000
  -0.0016648900    0.0002090700   -0.0015540300
   0.0007112500    0.0001352100   -0.0000116300
   0.0009812600   -0.0000637200   -0.0005572600
   0.0008571800    0.0001394400   -0.0004251300
   0.0005821500   -0.0000535900    0.0001120500
   0.0009193900    0.0000881600   -0.0004318500
   0.0006451400    0.0000669100    0.0000185100
   0.0006444000    0.0000846100   -0.0000170000
   0.0009215900    0.0000725300   -0.0004597300
   0.0006528800   -0.0017190300    0.0112305200
   0.0012280600   -0.0012168800    0.0110431600
   0.0008798400   -0.0016945600    0.0108582400
   0.0003309100   -0.0012124000    0.0110438400
   0.0007774100   -0.0009585400    0.0110736000
   0.0007798600   -0.0009679600    0.0110671500
   0.0007747200   -0.0009586500    0.0110142600
   0.0007719500   -0.0009693000    0.0110209400
   0.0041436200    0.0010209500   -0.0014103700
   0.0041497900    0.0008620800   -0.0014167500
   0.0041503700    0.0007442800   -0.0014128300
   0.0041498900    0.0008675200   -0.0014135300
   0.0041526600    0.0009761100   -0.0014107700
   0.0041479700    0.0007877000   -0.0014106300
   0.0041499100    0.0008222800   -0.0014138900
   0.0041501000    0.0009141500   -0.0014135200
   0.0027840500   -0.0015835500   -0.0020900700
   0.0027820300   -0.0012699600   -0.0025221700
   0.0027534000   -0.0015800500   -0.0029613200
   0.0027486200   -0.0012685800   -0.0025367100
   0.0027354000   -0.0015578100   -0.0027731400
   0.0027924500   -0.0012653700   -0.0025330700
   0.0027997700   -0.0015503400   -0.0022927000
   0.0027372200   -0.0012654600   -0.0025244200

1    
  0.0002192205163188  -0.0000005736116356   0.0099975968130444
   0.0367677500    0.0000352300   -0.5213753300
  -0.0010888900   -0.0000340400   -0.0013485900
  -0.0011573300   -0.0000338900   -0.0013719300
  -0.0011275200   -0.0000337400   -0.0013551900
  -0.0011373800   -0.0000338600   -0.0013022900
  -0.0010915700   -0.0000339300   -0.0013292700
  -0.0011410700   -0.0000339600   -0.0013029300
  -0.0011195300   -0.0000338800   -0.0012937100
   0.0369959000   -0.0000328000    0.1053851900
  -0.0040071200   -0.0000323200    0.0009880800
  -0.0038570900   -0.0000324400    0.0009507000
  -0.0039570100   -0.0000318300    0.0009564300
  -0.0038862900   -0.0000322700    0.0010301600
  -0.0039975100   -0.0000324600    0.0009032800
  -0.0039192100   -0.0000321800    0.0009655700
  -0.0039699500   -0.0000323200    0.0009617000
  -0.0373330600    0.0004090600    0.2824454400
   0.0001561000    0.0002179100   -0.0016553600
   0.0001409800    0.0002177800   -0.0016502500
   0.0001486400    0.0002177900   -0.0016488700
   0.0001538500    0.0002177700   -0.0016381700
   0.0001223900    0.0002179200   -0.0016354900
   0.0001524200    0.0002179300   -0.0016373600
   0.0001470800    0.0002178200   -0.0016383600
  -0.0319058100    0.0608334500    0.0634044900
  -0.0003905100    0.0000831300   -0.0013641700
  -0.0004249200    0.0000630600   -0.0013646500
  -0.0003916200    0.0000572500   -0.0013559200
  -0.0004244000    0.0000533100   -0.0013641500
  -0.0004306600    0.0000646100   -0.0013895900
  -0.0004183600    0.0000777400   -0.0013706800
  -0.0004276600    0.0000753400   -0.0013822400
  -0.0320038800   -0.0605388900    0.0635167700
  -0.0003889400    0.0004830700   -0.0014335800
  -0.0004233500    0.0005031000   -0.0014342000
  -0.0003898500    0.0005088800   -0.0014253500
  -0.0004227200    0.0005127300   -0.0014337000
  -0.0004290400    0.0005014900   -0.0014590900
  -0.0004167800    0.0004884700   -0.0014401800
  -0.0004259900    0.0004908500   -0.0014517800
  -0.0059428800    0.0051960900   -0.0050192900
  -0.0006154900    0.0007569300   -0.0002792400
  -0.0007030200    0.0006707800   -0.0002370700
  -0.0006118500    0.0007196100   -0.0002640200
  -0.0006255100    0.0007383600   -0.0002621000
  -0.0006027400    0.0007387200   -0.0002470800
  -0.0006196100    0.0007913900   -0.0002410500
  -0.0005845100    0.0008059600   -0.0002503600
  -0.0057549800   -0.0048399800   -0.0050297400
  -0.0004417800   -0.0003930200   -0.0002889000
  -0.0005292900   -0.0003067200   -0.0002466800
  -0.0004372500   -0.0003568900   -0.0002739800
  -0.0004514200   -0.0003749400   -0.0002718400
  -0.0004286000   -0.0003752500   -0.0002569200
  -0.0004454600   -0.0004274400   -0.0002507000
  -0.0004104200   -0.0004422300   -0.0002600700
   0.0306884400    0.0002253400    0.0068536600
  -0.0016346100    0.0002050700   -0.0015038900
  -0.0016601300    0.0002050500   -0.0014969500
  -0.0016494200    0.0002050100   -0.0015072600
  -0.0018140000    0.0002052000   -0.0014574800
  -0.0015627000    0.0002054400   -0.0014255600
  -0.0017228400    0.0002049700   -0.0015732700
  -0.0016604500    0.0002050800   -0.0015545000
   0.0007628600   -0.0000346200    0.0001819600
   0.0008091700   -0.0000854800   -0.0001328500
   0.0007605200    0.0002207700    0.0001821900
   0.0008100700    0.0002711700   -0.0001315500
   0.0006444100   -0.0000048100   -0.0005759800
   0.0009608600   -0.0002296600   -0.0003485600
   0.0006431100    0.0001913400   -0.0005759700
   0.0009631900    0.0004156300   -0.0003497500
   0.0003384900   -0.0019032600    0.0111810100
   0.0009666300   -0.0011316400    0.0109817800
   0.0003384500   -0.0000289500    0.0111807000
   0.0009688200   -0.0008001500    0.0109825200
   0.0007955900   -0.0009373500    0.0110510700
   0.0007713600   -0.0009319300    0.0110279400
   0.0007957700   -0.0009965100    0.0110510200
   0.0007712200   -0.0010017800    0.0110280500
   0.0034815200    0.0008540200   -0.0006801600
   0.0041075500    0.0008553900   -0.0014882200
   0.0041899000    0.0008541600   -0.0012994600
   0.0041174400    0.0008543500   -0.0013772500
   0.0049711800    0.0008557300   -0.0004654700
   0.0040009200    0.0008542500   -0.0012619200
   0.0041743100    0.0008541500   -0.0014670400
   0.0041393300    0.0008540100   -0.0014452200
   0.0030903800   -0.0015184000   -0.0022327800
   0.0027573500   -0.0012915100   -0.0025809800
   0.0030811900   -0.0010247300   -0.0022470600
   0.0027563200   -0.0012429400   -0.0025808600
   0.0027956400   -0.0012871200   -0.0024523600
   0.0026899100   -0.0013079900   -0.0025047800
   0.0027968700   -0.0012430800   -0.0024562100
   0.0026901000   -0.0012265200   -0.0025049200

1    
 -0.0002192205163188   0.0000005736116356  -0.0099975968130444
  -0.0445042800   -0.0000654100    0.5407310600
  -0.0011715700   -0.0000337000   -0.0012580900
  -0.0011037800   -0.0000338700   -0.0012352300
  -0.0011328200   -0.0000340600   -0.0012521200
  -0.0011229700   -0.0000339100   -0.0013045000
  -0.0011684200   -0.0000338200   -0.0012773600
  -0.0011188900   -0.0000338900   -0.0013041300
  -0.0011405500   -0.0000338600   -0.0013132600
  -0.0426954300   -0.0000312500   -0.1033177700
  -0.0039091400   -0.0000319800    0.0009447200
  -0.0040599300   -0.0000319700    0.0009820800
  -0.0039598600   -0.0000325700    0.0009763600
  -0.0040296200   -0.0000320600    0.0009034000
  -0.0039198700   -0.0000319500    0.0010276500
  -0.0039965500   -0.0000322400    0.0009664000
  -0.0039466500   -0.0000321300    0.0009706100
   0.0401362200    0.0000070700   -0.3045506200
   0.0001375000    0.0002176500   -0.0016190000
   0.0001520600    0.0002177800   -0.0016240100
   0.0001445300    0.0002177700   -0.0016254000
   0.0001394800    0.0002177900   -0.0016359800
   0.0001706700    0.0002176400   -0.0016389500
   0.0001409200    0.0002176200   -0.0016369700
   0.0001461200    0.0002177400   -0.0016360800
   0.0312503600   -0.0607483600   -0.0679925900
  -0.0004633600    0.0000588900   -0.0013995400
  -0.0004284300    0.0000792500   -0.0013995300
  -0.0004619100    0.0000848900   -0.0014078600
  -0.0004289200    0.0000886400   -0.0013992300
  -0.0004228100    0.0000778300   -0.0013742800
  -0.0004349400    0.0000645300   -0.0013926700
  -0.0004259100    0.0000668600   -0.0013814000
   0.0313424800    0.0615685500   -0.0682427600
  -0.0004615900    0.0005072300   -0.0014692900
  -0.0004266800    0.0004868900   -0.0014691200
  -0.0004603500    0.0004813100   -0.0014775900
  -0.0004272700    0.0004776400   -0.0014688400
  -0.0004211200    0.0004883900   -0.0014439400
  -0.0004332000    0.0005015600   -0.0014623300
  -0.0004242500    0.0004992700   -0.0014510100
   0.0046938300   -0.0035787600    0.0045229500
  -0.0005753000    0.0008200900   -0.0002256700
  -0.0004881900    0.0009072900   -0.0002678100
  -0.0005793600    0.0008578300   -0.0002404400
  -0.0005665700    0.0008389100   -0.0002421300
  -0.0005885200    0.0008390800   -0.0002569900
  -0.0005724100    0.0007857300   -0.0002628700
  -0.0006067300    0.0007717500   -0.0002539700
   0.0048546300    0.0039497100    0.0045140600
  -0.0004007700   -0.0004568800   -0.0002354100
  -0.0003137200   -0.0005441600   -0.0002775900
  -0.0004057400   -0.0004933800   -0.0002498600
  -0.0003924300   -0.0004752000   -0.0002517900
  -0.0004144400   -0.0004754100   -0.0002665400
  -0.0003983500   -0.0004225200   -0.0002726100
  -0.0004326100   -0.0004083000   -0.0002636500
  -0.0335232500    0.0001846100   -0.0096201000
  -0.0016962600    0.0002049800   -0.0016135900
  -0.0016700400    0.0002050000   -0.0016204100
  -0.0016810300    0.0002050500   -0.0016097500
  -0.0015195200    0.0002048500   -0.0016578900
  -0.0017669300    0.0002046100   -0.0016896800
  -0.0016084200    0.0002050800   -0.0015431800
  -0.0016698600    0.0002049600   -0.0015618000
   0.0008031000    0.0002218200   -0.0006258100
   0.0007519900    0.0002724600   -0.0003095700
   0.0008059600   -0.0000349100   -0.0006258900
   0.0007511100   -0.0000854100   -0.0003111500
   0.0009152300    0.0001951200    0.0001348500
   0.0006102100    0.0004122000   -0.0000921800
   0.0009165000   -0.0000089300    0.0001345600
   0.0006077900   -0.0002254300   -0.0000909800
   0.0012109100   -0.0000375500    0.0109057500
   0.0005938000   -0.0008087900    0.0111073800
   0.0012109500   -0.0018978500    0.0109060400
   0.0005916300   -0.0011271000    0.0111067700
   0.0007584900   -0.0009970200    0.0110340100
   0.0007818600   -0.0010018800    0.0110565400
   0.0007582400   -0.0009369100    0.0110339800
   0.0007821400   -0.0009319600    0.0110564200
   0.0047992200    0.0008547900   -0.0021213000
   0.0042021800    0.0008534100   -0.0013317800
   0.0041124800    0.0008545200   -0.0015263000
   0.0041835600    0.0008543600   -0.0014481400
   0.0033168900    0.0008531000   -0.0023709000
   0.0043035900    0.0008545600   -0.0015665700
   0.0041268800    0.0008545600   -0.0013588900
   0.0041626900    0.0008546500   -0.0013807200
   0.0024430800   -0.0010101200   -0.0028281900
   0.0027754200   -0.0012427700   -0.0024765300
   0.0024522000   -0.0015153600   -0.0028138800
   0.0027764000   -0.0012915200   -0.0024766100
   0.0027373400   -0.0012484600   -0.0026062300
   0.0028424200   -0.0012258900   -0.0025532500
   0.0027362100   -0.0012900300   -0.0026022700
   0.0028422700   -0.0013083600   -0.0025532100

9    
  0.0100000000000000   0.0000000000000000   0.0000000000000000
   0.1622158000    0.0000048000    0.0324286100
  -0.0012183100   -0.0000340200   -0.0013536500
  -0.0009909000   -0.0000340400   -0.0012087500
  -0.0012953600   -0.0000338000   -0.0013025600
  -0.0010597700   -0.0000339800   -0.0012375600
  -0.0012195300   -0.0000338100   -0.0013437000
  -0.0010584100   -0.0000339700   -0.0012697600
  -0.0011702300   -0.0000338800   -0.0013174300
  -0.5096381300   -0.0001136500    0.0396452300
  -0.0038869900   -0.0000320800    0.0009756800
  -0.0042698800   -0.0000326000    0.0010073900
  -0.0036721700   -0.0000325400    0.0009040600
  -0.0040564200   -0.0000323400    0.0009791300
  -0.0037958500   -0.0000321700    0.0010840500
  -0.0040844600   -0.0000322800    0.0009267400
  -0.0039008800   -0.0000321200    0.0009714400
   0.0031857500    0.0002215800   -0.0001762400
   0.0001318800    0.0002176600   -0.0016299500
   0.0001509400    0.0002178600   -0.0016357200
   0.0001465500    0.0002177100   -0.0016217900
   0.0001818300    0.0002179800   -0.0016181600
   0.0000827000    0.0002179200   -0.0016047900
   0.0001561000    0.0002178000   -0.0016333400
   0.0001371100    0.0002177200   -0.0016313800
   0.0216675600    0.0029628000    0.0101949000
  -0.0004367200    0.0001212200   -0.0013816400
  -0.0004402800    0.0000438700   -0.0014010900
  -0.0004852500    0.0000742700   -0.0014157800
  -0.0004292900    0.0000754600   -0.0013884700
  -0.0004379100    0.0000457000   -0.0014108800
  -0.0004335700    0.0000647500   -0.0013862500
  -0.0004368100    0.0000650300   -0.0013829700
   0.0216567600   -0.0023379500    0.0101185500
  -0.0004353600    0.0004448900   -0.0014513800
  -0.0004386700    0.0005222400   -0.0014706000
  -0.0004832100    0.0004920200   -0.0014854400
  -0.0004276600    0.0004907100   -0.0014578900
  -0.0004362500    0.0005203600   -0.0014803200