nqpoint: 404    
npath: 4      
natom: 2      
phonon:
- q-position: [    0.0000000,    0.0000000,    0.0000000 ]
  distance:    0.0000000
  band:
  - # 1
    frequency:   -0.0022279839
  - # 2
    frequency:   -0.0022279839
  - # 3
    frequency:   -0.0022247546
  - # 4
    frequency:    1.5020765107
  - # 5
    frequency:    1.5020765107
  - # 6
    frequency:    3.6044638002

- q-position: [    0.0050000,    0.0025000,    0.0075000 ]
  distance:    0.0018316
  band:
  - # 1
    frequency:    0.0398645351
  - # 2
    frequency:    0.0423525656
  - # 3
    frequency:    0.0641667906
  - # 4
    frequency:    1.5047277127
  - # 5
    frequency:    1.5050711368
  - # 6
    frequency:    3.6058304508

- q-position: [    0.0100000,    0.0050000,    0.0150000 ]
  distance:    0.0036632
  band:
  - # 1
    frequency:    0.0796335129
  - # 2
    frequency:    0.0845538007
  - # 3
    frequency:    0.1283237391
  - # 4
    frequency:    1.5126385887
  - # 5
    frequency:    1.5140099116
  - # 6
    frequency:    3.6099168133

- q-position: [    0.0150000,    0.0075000,    0.0225000 ]
  distance:    0.0054948
  band:
  - # 1
    frequency:    0.1190122533
  - # 2
    frequency:    0.1262702998
  - # 3
    frequency:    0.1923334734
  - # 4
    frequency:    1.5256826821
  - # 5
    frequency:    1.5287591063
  - # 6
    frequency:    3.6166823508

- q-position: [    0.0200000,    0.0100000,    0.0300000 ]
  distance:    0.0073264
  band:
  - # 1
    frequency:    0.1578509796
  - # 2
    frequency:    0.1673150031
  - # 3
    frequency:    0.2561408406
  - # 4
    frequency:    1.5436548871
  - # 5
    frequency:    1.5491010843
  - # 6
    frequency:    3.6260602638

- q-position: [    0.0250000,    0.0125000,    0.0375000 ]
  distance:    0.0091580
  band:
  - # 1
    frequency:    0.1960082798
  - # 2
    frequency:    0.2075220897
  - # 3
    frequency:    0.3196856367
  - # 4
    frequency:    1.5662795041
  - # 5
    frequency:    1.5747420354
  - # 6
    frequency:    3.6379586060

- q-position: [    0.0300000,    0.0150000,    0.0450000 ]
  distance:    0.0109896
  band:
  - # 1
    frequency:    0.2333648065
  - # 2
    frequency:    0.2467616634
  - # 3
    frequency:    0.3829096388
  - # 4
    frequency:    1.5932206879
  - # 5
    frequency:    1.6053224275
  - # 6
    frequency:    3.6522617934

- q-position: [    0.0350000,    0.0175000,    0.0525000 ]
  distance:    0.0128212
  band:
  - # 1
    frequency:    0.2698258230
  - # 2
    frequency:    0.2849422709
  - # 3
    frequency:    0.4457579419
  - # 4
    frequency:    1.6240945303
  - # 5
    frequency:    1.6404296251
  - # 6
    frequency:    3.6688324590

- q-position: [    0.0400000,    0.0200000,    0.0600000 ]
  distance:    0.0146528
  band:
  - # 1
    frequency:    0.3053206389
  - # 2
    frequency:    0.3220090190
  - # 3
    frequency:    0.5081794368
  - # 4
    frequency:    1.6584819251
  - # 5
    frequency:    1.6796118695
  - # 6
    frequency:    3.6875135953

- q-position: [    0.0450000,    0.0225000,    0.0675000 ]
  distance:    0.0164844
  band:
  - # 1
    frequency:    0.3398002866
  - # 2
    frequency:    0.3579389579
  - # 3
    frequency:    0.5701269875
  - # 4
    frequency:    1.6959413684
  - # 5
    frequency:    1.7223926542
  - # 6
    frequency:    3.7081309204

- q-position: [    0.0500000,    0.0250000,    0.0750000 ]
  distance:    0.0183159
  band:
  - # 1
    frequency:    0.3732342052
  - # 2
    frequency:    0.3927349456
  - # 3
    frequency:    0.6315574408
  - # 4
    frequency:    1.7360209494
  - # 5
    frequency:    1.7682845198
  - # 6
    frequency:    3.7304954043

- q-position: [    0.0550000,    0.0275000,    0.0825000 ]
  distance:    0.0201475
  band:
  - # 1
    frequency:    0.4056065559
  - # 2
    frequency:    0.4264190521
  - # 3
    frequency:    0.6924315249
  - # 4
    frequency:    1.7782689722
  - # 5
    frequency:    1.8168014445
  - # 6
    frequency:    3.7544058884

- q-position: [    0.0600000,    0.0300000,    0.0900000 ]
  distance:    0.0219791
  band:
  - # 1
    frequency:    0.4369126521
  - # 2
    frequency:    0.4590263288
  - # 3
    frequency:    0.7527136644
  - # 4
    frequency:    1.8222428626
  - # 5
    frequency:    1.8674692710
  - # 6
    frequency:    3.7796517379

- q-position: [    0.0650000,    0.0325000,    0.0975000 ]
  distance:    0.0238107
  band:
  - # 1
    frequency:    0.4671558316
  - # 2
    frequency:    0.4905994824
  - # 3
    frequency:    0.8123717315
  - # 4
    frequency:    1.8675162347
  - # 5
    frequency:    1.9198339062
  - # 6
    frequency:    3.8060154710

- q-position: [    0.0700000,    0.0350000,    0.1050000 ]
  distance:    0.0256423
  band:
  - # 1
    frequency:    0.4963449404
  - # 2
    frequency:    0.5211847082
  - # 3
    frequency:    0.8713767459
  - # 4
    frequency:    1.9136841671
  - # 5
    frequency:    1.9734673032
  - # 6
    frequency:    3.8332753159

- q-position: [    0.0750000,    0.0375000,    0.1125000 ]
  distance:    0.0274739
  band:
  - # 1
    frequency:    0.5244924752
  - # 2
    frequency:    0.5508287158
  - # 3
    frequency:    0.9297025306
  - # 4
    frequency:    1.9603668641
  - # 5
    frequency:    2.0279714300
  - # 6
    frequency:    3.8612076553

- q-position: [    0.0800000,    0.0400000,    0.1200000 ]
  distance:    0.0293055
  band:
  - # 1
    frequency:    0.5516133400
  - # 2
    frequency:    0.5795768322
  - # 3
    frequency:    0.9873253332
  - # 4
    frequency:    2.0072119503
  - # 5
    frequency:    2.0829805407
  - # 6
    frequency:    3.8895893251

- q-position: [    0.0850000,    0.0425000,    0.1275000 ]
  distance:    0.0311371
  band:
  - # 1
    frequency:    0.5777241257
  - # 2
    frequency:    0.6074719911
  - # 3
    frequency:    1.0442234164
  - # 4
    frequency:    2.0538956670
  - # 5
    frequency:    2.1381621080
  - # 6
    frequency:    3.9181997450

- q-position: [    0.0900000,    0.0450000,    0.1350000 ]
  distance:    0.0329687
  band:
  - # 1
    frequency:    0.6028427985
  - # 2
    frequency:    0.6345543943
  - # 3
    frequency:    1.1003766271
  - # 4
    frequency:    2.1001232315
  - # 5
    frequency:    2.1932167595
  - # 6
    frequency:    3.9468228643

- q-position: [    0.0950000,    0.0475000,    0.1425000 ]
  distance:    0.0348003
  band:
  - # 1
    frequency:    0.6269886850
  - # 2
    frequency:    0.6608616434
  - # 3
    frequency:    1.1557659476
  - # 4
    frequency:    2.1456285874
  - # 5
    frequency:    2.2478775174
  - # 6
    frequency:    3.9752489136

- q-position: [    0.1000000,    0.0500000,    0.1500000 ]
  distance:    0.0366319
  band:
  - # 1
    frequency:    0.6501826526
  - # 2
    frequency:    0.6864291706
  - # 3
    frequency:    1.2103730389
  - # 4
    frequency:    2.1901737382
  - # 5
    frequency:    2.3019085831
  - # 6
    frequency:    4.0032759612

- q-position: [    0.1050000,    0.0525000,    0.1575000 ]
  distance:    0.0384635
  band:
  - # 1
    frequency:    0.6724474036
  - # 2
    frequency:    0.7112908312
  - # 3
    frequency:    1.2641797811
  - # 4
    frequency:    2.2335478099
  - # 5
    frequency:    2.3551038518
  - # 6
    frequency:    4.0307112748

- q-position: [    0.1100000,    0.0550000,    0.1650000 ]
  distance:    0.0402951
  band:
  - # 1
    frequency:    0.6938078162
  - # 2
    frequency:    0.7354795564
  - # 3
    frequency:    1.3171678180
  - # 4
    frequency:    2.2755659571
  - # 5
    frequency:    2.4072852883
  - # 6
    frequency:    4.0573724956

- q-position: [    0.1150000,    0.0575000,    0.1725000 ]
  distance:    0.0421267
  band:
  - # 1
    frequency:    0.7142912848
  - # 2
    frequency:    0.7590279921
  - # 3
    frequency:    1.3693181143
  - # 4
    frequency:    2.3160681902
  - # 5
    frequency:    2.4583012537
  - # 6
    frequency:    4.0830886343

- q-position: [    0.1200000,    0.0600000,    0.1800000 ]
  distance:    0.0439583
  band:
  - # 1
    frequency:    0.7339280239
  - # 2
    frequency:    0.7819690720
  - # 3
    frequency:    1.4206105306
  - # 4
    frequency:    2.3549181779
  - # 5
    frequency:    2.5080248399
  - # 6
    frequency:    4.1077008995

- q-position: [    0.1250000,    0.0625000,    0.1875000 ]
  distance:    0.0457899
  band:
  - # 1
    frequency:    0.7527513116
  - # 2
    frequency:    0.8043364941
  - # 3
    frequency:    1.4710234252
  - # 4
    frequency:    2.3920020592
  - # 5
    frequency:    2.5563522413
  - # 6
    frequency:    4.1310633713

- q-position: [    0.1300000,    0.0650000,    0.1950000 ]
  distance:    0.0476215
  band:
  - # 1
    frequency:    0.7707976555
  - # 2
    frequency:    0.8261650781
  - # 3
    frequency:    1.5205332873
  - # 4
    frequency:    2.4272272835
  - # 5
    frequency:    2.6032011802
  - # 6
    frequency:    4.1530435330

- q-position: [    0.1350000,    0.0675000,    0.2025000 ]
  distance:    0.0494531
  band:
  - # 1
    frequency:    0.7881068719
  - # 2
    frequency:    0.8474909923
  - # 3
    frequency:    1.5691144103
  - # 4
    frequency:    2.4605214891
  - # 5
    frequency:    2.6485093850
  - # 6
    frequency:    4.1735226735

- q-position: [    0.1400000,    0.0700000,    0.2100000 ]
  distance:    0.0512846
  band:
  - # 1
    frequency:    0.8047220704
  - # 2
    frequency:    0.8683518465
  - # 3
    frequency:    1.6167386119
  - # 4
    frequency:    2.4918314203
  - # 5
    frequency:    2.6922331173
  - # 6
    frequency:    4.1923961729

- q-position: [    0.1450000,    0.0725000,    0.2175000 ]
  distance:    0.0531162
  band:
  - # 1
    frequency:    0.8206895424
  - # 2
    frequency:    0.8887866482
  - # 3
    frequency:    1.6633750069
  - # 4
    frequency:    2.5211218811
  - # 5
    frequency:    2.7343457373
  - # 6
    frequency:    4.2095736834

- q-position: [    0.1500000,    0.0750000,    0.2250000 ]
  distance:    0.0549478
  band:
  - # 1
    frequency:    0.8360585505
  - # 2
    frequency:    0.9088356284
  - # 3
    frequency:    1.7089898407
  - # 4
    frequency:    2.5483747196
  - # 5
    frequency:    2.7748362939
  - # 6
    frequency:    4.2249792159

- q-position: [    0.1550000,    0.0775000,    0.2325000 ]
  distance:    0.0567794
  band:
  - # 1
    frequency:    0.8508810227
  - # 2
    frequency:    0.9285399409
  - # 3
    frequency:    1.7535463888
  - # 4
    frequency:    2.5735878361
  - # 5
    frequency:    2.8137081272
  - # 6
    frequency:    4.2385511407

- q-position: [    0.1600000,    0.0800000,    0.2400000 ]
  distance:    0.0586110
  band:
  - # 1
    frequency:    0.8652111509
  - # 2
    frequency:    0.9479412459
  - # 3
    frequency:    1.7970049296
  - # 4
    frequency:    2.5967742065
  - # 5
    frequency:    2.8509774702
  - # 6
    frequency:    4.2502421129

- q-position: [    0.1650000,    0.0825000,    0.2475000 ]
  distance:    0.0604426
  band:
  - # 1
    frequency:    0.8791049010
  - # 2
    frequency:    0.9670811899
  - # 3
    frequency:    1.8393227948
  - # 4
    frequency:    2.6179609136
  - # 5
    frequency:    2.8866720393
  - # 6
    frequency:    4.2600189267

- q-position: [    0.1700000,    0.0850000,    0.2550000 ]
  distance:    0.0622742
  band:
  - # 1
    frequency:    0.8926194396
  - # 2
    frequency:    0.9860007955
  - # 3
    frequency:    1.8804545026
  - # 4
    frequency:    2.6371881793
  - # 5
    frequency:    2.9208296040
  - # 6
    frequency:    4.2678623060

- q-position: [    0.1750000,    0.0875000,    0.2625000 ]
  distance:    0.0641058
  band:
  - # 1
    frequency:    0.9058124864
  - # 2
    frequency:    1.0047397791
  - # 3
    frequency:    1.9203519754
  - # 4
    frequency:    2.6545083891
  - # 5
    frequency:    2.9534965303
  - # 6
    frequency:    4.2737666341

- q-position: [    0.1800000,    0.0900000,    0.2700000 ]
  distance:    0.0659374
  band:
  - # 1
    frequency:    0.9187416020
  - # 2
    frequency:    1.0233358146
  - # 3
    frequency:    1.9589648449
  - # 4
    frequency:    2.6699851065
  - # 5
    frequency:    2.9847262963
  - # 6
    frequency:    4.2777396256

- q-position: [    0.1850000,    0.0925000,    0.2775000 ]
  distance:    0.0677690
  band:
  - # 1
    frequency:    0.9314634254
  - # 2
    frequency:    1.0418237663
  - # 3
    frequency:    1.9962408405
  - # 4
    frequency:    2.6836920690
  - # 5
    frequency:    3.0145779826
  - # 6
    frequency:    4.2798019422

- q-position: [    0.1900000,    0.0950000,    0.2850000 ]
  distance:    0.0696006
  band:
  - # 1
    frequency:    0.9440328761
  - # 2
    frequency:    1.0602349116
  - # 3
    frequency:    2.0321262598
  - # 4
    frequency:    2.6957121648
  - # 5
    frequency:    3.0431147431
  - # 6
    frequency:    4.2799867502

- q-position: [    0.1950000,    0.0975000,    0.2925000 ]
  distance:    0.0714322
  band:
  - # 1
    frequency:    0.9565023368
  - # 2
    frequency:    1.0785961797
  - # 3
    frequency:    2.0665665110
  - # 4
    frequency:    2.7061363861
  - # 5
    frequency:    3.0704022716
  - # 6
    frequency:    4.2783392209

- q-position: [    0.2000000,    0.1000000,    0.3000000 ]
  distance:    0.0732638
  band:
  - # 1
    frequency:    0.9689208389
  - # 2
    frequency:    1.0969294281
  - # 3
    frequency:    2.0995067192
  - # 4
    frequency:    2.7150627592
  - # 5
    frequency:    3.0965072788
  - # 6
    frequency:    4.2749159682

- q-position: [    0.2050000,    0.1025000,    0.3075000 ]
  distance:    0.0750954
  band:
  - # 1
    frequency:    0.9813332685
  - # 2
    frequency:    1.1152507829
  - # 3
    frequency:    2.1308923813
  - # 4
    frequency:    2.7225952507
  - # 5
    frequency:    3.1214960053
  - # 6
    frequency:    4.2697844214

- q-position: [    0.2100000,    0.1050000,    0.3150000 ]
  distance:    0.0769270
  band:
  - # 1
    frequency:    0.9937796171
  - # 2
    frequency:    1.1335700628
  - # 3
    frequency:    2.1606700545
  - # 4
    frequency:    2.7288426511
  - # 5
    frequency:    3.1454327943
  - # 6
    frequency:    4.2630221280

- q-position: [    0.2150000,    0.1075000,    0.3225000 ]
  distance:    0.0787586
  band:
  - # 1
    frequency:    1.0062942963
  - # 2
    frequency:    1.1518903082
  - # 3
    frequency:    2.1887880617
  - # 4
    frequency:    2.7339174394
  - # 5
    frequency:    3.1683787552
  - # 6
    frequency:    4.2547159812

- q-position: [    0.2200000,    0.1100000,    0.3300000 ]
  distance:    0.0805902
  band:
  - # 1
    frequency:    1.0189055397
  - # 2
    frequency:    1.1702074308
  - # 3
    frequency:    2.2151971975
  - # 4
    frequency:    2.7379346329
  - # 5
    frequency:    3.1903905460
  - # 6
    frequency:    4.2449613680

- q-position: [    0.2250000,    0.1125000,    0.3375000 ]
  distance:    0.0824218
  band:
  - # 1
    frequency:    1.0316349095
  - # 2
    frequency:    1.1885099973
  - # 3
    frequency:    2.2398514203
  - # 4
    frequency:    2.7410106264
  - # 5
    frequency:    3.2115192994
  - # 6
    frequency:    4.2338612348

- q-position: [    0.2300000,    0.1150000,    0.3450000 ]
  distance:    0.0842534
  band:
  - # 1
    frequency:    1.0444969251
  - # 2
    frequency:    1.2067791549
  - # 3
    frequency:    2.2627085223
  - # 4
    frequency:    2.7432620303
  - # 5
    frequency:    3.2318097139
  - # 6
    frequency:    4.2215250697

- q-position: [    0.2350000,    0.1175000,    0.3525000 ]
  distance:    0.0860849
  band:
  - # 1
    frequency:    1.0574988267
  - # 2
    frequency:    1.2249887028
  - # 3
    frequency:    2.2837307741
  - # 4
    frequency:    2.7448045133
  - # 5
    frequency:    3.2512993177
  - # 6
    frequency:    4.2080678059

- q-position: [    0.2400000,    0.1200000,    0.3600000 ]
  distance:    0.0879165
  band:
  - # 1
    frequency:    1.0706404840
  - # 2
    frequency:    1.2431053074
  - # 3
    frequency:    2.3028855479
  - # 4
    frequency:    2.7457516611
  - # 5
    frequency:    3.2700179021
  - # 6
    frequency:    4.1936086556

- q-position: [    0.2450000,    0.1225000,    0.3675000 ]
  distance:    0.0897481
  band:
  - # 1
    frequency:    1.0839144530
  - # 2
    frequency:    1.2610888571
  - # 3
    frequency:    2.3201459336
  - # 4
    frequency:    2.7462138627
  - # 5
    frequency:    3.2879871052
  - # 6
    frequency:    4.1782698936

- q-position: [    0.2500000,    0.1250000,    0.3750000 ]
  distance:    0.0915797
  band:
  - # 1
    frequency:    1.0973061833
  - # 2
    frequency:    1.2788929454
  - # 3
    frequency:    2.3354913634
  - # 4
    frequency:    2.7462972336
  - # 5
    frequency:    3.3052201099
  - # 6
    frequency:    4.1621756185

- q-position: [    0.2550000,    0.1275000,    0.3825000 ]
  distance:    0.0934113
  band:
  - # 1
    frequency:    1.1107943685
  - # 2
    frequency:    1.2964654693
  - # 3
    frequency:    2.3489082682
  - # 4
    frequency:    2.7461025922
  - # 5
    frequency:    3.3217214025
  - # 6
    frequency:    4.1454505344

- q-position: [    0.2600000,    0.1300000,    0.3900000 ]
  distance:    0.0952429
  band:
  - # 1
    frequency:    1.1243514328
  - # 2
    frequency:    1.3137493282
  - # 3
    frequency:    2.3603907835
  - # 4
    frequency:    2.7457245017
  - # 5
    frequency:    3.3374865288
  - # 6
    frequency:    4.1282188077

- q-position: [    0.2650000,    0.1325000,    0.3975000 ]
  distance:    0.0970745
  band:
  - # 1
    frequency:    1.1379441386
  - # 2
    frequency:    1.3306832036
  - # 3
    frequency:    2.3699415195
  - # 4
    frequency:    2.7452503913
  - # 5
    frequency:    3.3525017717
  - # 6
    frequency:    4.1106030690

- q-position: [    0.2700000,    0.1350000,    0.4050000 ]
  distance:    0.0989061
  band:
  - # 1
    frequency:    1.1515342988
  - # 2
    frequency:    1.3472024038
  - # 3
    frequency:    2.3775723918
  - # 4
    frequency:    2.7447597726
  - # 5
    frequency:    3.3667436761
  - # 6
    frequency:    4.0927236419

- q-position: [    0.2750000,    0.1375000,    0.4125000 ]
  distance:    0.1007377
  band:
  - # 1
    frequency:    1.1650795739
  - # 2
    frequency:    1.3632397548
  - # 3
    frequency:    2.3833054991
  - # 4
    frequency:    2.7443235645
  - # 5
    frequency:    3.3801783531
  - # 6
    frequency:    4.0746980843

- q-position: [    0.2800000,    0.1400000,    0.4200000 ]
  distance:    0.1025693
  band:
  - # 1
    frequency:    1.1785343317
  - # 2
    frequency:    1.3787265220
  - # 3
    frequency:    2.3871740075
  - # 4
    frequency:    2.7440035398
  - # 5
    frequency:    3.3927605160
  - # 6
    frequency:    4.0566411309

- q-position: [    0.2850000,    0.1425000,    0.4275000 ]
  distance:    0.1044009
  band:
  - # 1
    frequency:    1.1918505469
  - # 2
    frequency:    1.3935933510
  - # 3
    frequency:    2.3892229853
  - # 4
    frequency:    2.7438519069
  - # 5
    frequency:    3.4044322323
  - # 6
    frequency:    4.0386650996

- q-position: [    0.2900000,    0.1450000,    0.4350000 ]
  distance:    0.1062325
  band:
  - # 1
    frequency:    1.2049787165
  - # 2
    frequency:    1.4077712153
  - # 3
    frequency:    2.3895101166
  - # 4
    frequency:    2.7439110351
  - # 5
    frequency:    3.4151214287
  - # 6
    frequency:    4.0208807933

- q-position: [    0.2950000,    0.1475000,    0.4425000 ]
  distance:    0.1080641
  band:
  - # 1
    frequency:    1.2178687700
  - # 2
    frequency:    1.4211923681
  - # 3
    frequency:    2.3881062075
  - # 4
    frequency:    2.7442133336
  - # 5
    frequency:    3.4247402576
  - # 6
    frequency:    4.0033988553

- q-position: [    0.3000000,    0.1500000,    0.4500000 ]
  distance:    0.1098957
  band:
  - # 1
    frequency:    1.2304709518
  - # 2
    frequency:    1.4337912950
  - # 3
    frequency:    2.3850954045
  - # 4
    frequency:    2.7447812869
  - # 5
    frequency:    3.4331835348
  - # 6
    frequency:    3.9863314348

- q-position: [    0.3050000,    0.1525000,    0.4575000 ]
  distance:    0.1117273
  band:
  - # 1
    frequency:    1.2427366568
  - # 2
    frequency:    1.4455056702
  - # 3
    frequency:    2.3805750471
  - # 4
    frequency:    2.7456276502
  - # 5
    frequency:    3.4403275875
  - # 6
    frequency:    3.9697938766

- q-position: [    0.3100000,    0.1550000,    0.4650000 ]
  distance:    0.1135589
  band:
  - # 1
    frequency:    1.2546192053
  - # 2
    frequency:    1.4562773205
  - # 3
    frequency:    2.3746550999
  - # 4
    frequency:    2.7467558013
  - # 5
    frequency:    3.4460300064
  - # 6
    frequency:    3.9539059720

- q-position: [    0.3150000,    0.1575000,    0.4725000 ]
  distance:    0.1153905
  band:
  - # 1
    frequency:    1.2660745414
  - # 2
    frequency:    1.4660532031
  - # 3
    frequency:    2.3674571325
  - # 4
    frequency:    2.7481602436
  - # 5
    frequency:    3.4501309510
  - # 6
    frequency:    3.9387921277

- q-position: [    0.3200000,    0.1600000,    0.4800000 ]
  distance:    0.1172221
  band:
  - # 1
    frequency:    1.2770618484
  - # 2
    frequency:    1.4747864024
  - # 3
    frequency:    2.3591128467
  - # 4
    frequency:    2.7498272488
  - # 5
    frequency:    3.4524567530
  - # 6
    frequency:    3.9245796824

- q-position: [    0.3250000,    0.1625000,    0.4875000 ]
  distance:    0.1190536
  band:
  - # 1
    frequency:    1.2875440752
  - # 2
    frequency:    1.4824371455
  - # 3
    frequency:    2.3497621833
  - # 4
    frequency:    2.7517356263
  - # 5
    frequency:    3.4528264951
  - # 6
    frequency:    3.9113946421

- q-position: [    0.3300000,    0.1650000,    0.4950000 ]
  distance:    0.1208852
  band:
  - # 1
    frequency:    1.2974883704
  - # 2
    frequency:    1.4889738317
  - # 3
    frequency:    2.3395510697
  - # 4
    frequency:    2.7538576011
  - # 5
    frequency:    3.4510618842
  - # 6
    frequency:    3.8993544394

- q-position: [    0.3350000,    0.1675000,    0.5025000 ]
  distance:    0.1227168
  band:
  - # 1
    frequency:    1.3068664277
  - # 2
    frequency:    1.4943740582
  - # 3
    frequency:    2.3286288970
  - # 4
    frequency:    2.7561597796
  - # 5
    frequency:    3.4470000035
  - # 6
    frequency:    3.8885580421

- q-position: [    0.3400000,    0.1700000,    0.5100000 ]
  distance:    0.1245484
  band:
  - # 1
    frequency:    1.3156547456
  - # 2
    frequency:    1.4986256140
  - # 3
    frequency:    2.3171458344
  - # 4
    frequency:    2.7586041803
  - # 5
    frequency:    3.4405075021
  - # 6
    frequency:    3.8790747539

- q-position: [    0.3450000,    0.1725000,    0.5175000 ]
  distance:    0.1263800
  band:
  - # 1
    frequency:    1.3238348070
  - # 2
    frequency:    1.5017273979
  - # 3
    frequency:    2.3052501048
  - # 4
    frequency:    2.7611493056
  - # 5
    frequency:    3.4314938220
  - # 6
    frequency:    3.8709340105

- q-position: [    0.3500000,    0.1750000,    0.5250000 ]
  distance:    0.1282116
  band:
  - # 1
    frequency:    1.3313931881
  - # 2
    frequency:    1.5036902035
  - # 3
    frequency:    2.2930853502
  - # 4
    frequency:    2.7637512304
  - # 5
    frequency:    3.4199207181
  - # 6
    frequency:    3.8641188250

- q-position: [    0.3550000,    0.1775000,    0.5325000 ]
  distance:    0.1300432
  band:
  - # 1
    frequency:    1.3383216033
  - # 2
    frequency:    1.5045373023
  - # 3
    frequency:    2.2807882162
  - # 4
    frequency:    2.7663646822
  - # 5
    frequency:    3.4058060010
  - # 6
    frequency:    3.8585648760

- q-position: [    0.3600000,    0.1800000,    0.5400000 ]
  distance:    0.1318748
  band:
  - # 1
    frequency:    1.3446168951
  - # 2
    frequency:    1.5043047524
  - # 3
    frequency:    2.2684862743
  - # 4
    frequency:    2.7689440915
  - # 5
    frequency:    3.3892209917
  - # 6
    frequency:    3.8541656875

- q-position: [    0.3650000,    0.1825000,    0.5475000 ]
  distance:    0.1337064
  band:
  - # 1
    frequency:    1.3502809770
  - # 2
    frequency:    1.5030413621
  - # 3
    frequency:    2.2562963831
  - # 4
    frequency:    2.7714445901
  - # 5
    frequency:    3.3702829233
  - # 6
    frequency:    3.8507826193

- q-position: [    0.3700000,    0.1850000,    0.5550000 ]
  distance:    0.1355380
  band:
  - # 1
    frequency:    1.3553207357
  - # 2
    frequency:    1.5008082529
  - # 3
    frequency:    2.2443235603
  - # 4
    frequency:    2.7738229400
  - # 5
    frequency:    3.3491446437
  - # 6
    frequency:    3.8482572820

- q-position: [    0.3750000,    0.1875000,    0.5625000 ]
  distance:    0.1373696
  band:
  - # 1
    frequency:    1.3597478982
  - # 2
    frequency:    1.4976779879
  - # 3
    frequency:    2.2326604013
  - # 4
    frequency:    2.7760383772
  - # 5
    frequency:    3.3259840857
  - # 6
    frequency:    3.8464238937

- q-position: [    0.3800000,    0.1900000,    0.5700000 ]
  distance:    0.1392012
  band:
  - # 1
    frequency:    1.3635788679
  - # 2
    frequency:    1.4937332673
  - # 3
    frequency:    2.2213870397
  - # 4
    frequency:    2.7780533577
  - # 5
    frequency:    3.3009952981
  - # 6
    frequency:    3.8451197770

- q-position: [    0.3850000,    0.1925000,    0.5775000 ]
  distance:    0.1410328
  band:
  - # 1
    frequency:    1.3668345312
  - # 2
    frequency:    1.4890652236
  - # 3
    frequency:    2.2105715991
  - # 4
    frequency:    2.7798341969
  - # 5
    frequency:    3.2743818829
  - # 6
    frequency:    3.8441931527

- q-position: [    0.3900000,    0.1950000,    0.5850000 ]
  distance:    0.1428644
  band:
  - # 1
    frequency:    1.3695400368
  - # 2
    frequency:    1.4837713897
  - # 3
    frequency:    2.2002710463
  - # 4
    frequency:    2.7813515958
  - # 5
    frequency:    3.2463528888
  - # 6
    frequency:    3.8435081883

- q-position: [    0.3950000,    0.1975000,    0.5925000 ]
  distance:    0.1446960
  band:
  - # 1
    frequency:    1.3717245457
  - # 2
    frequency:    1.4779534374
  - # 3
    frequency:    2.1905323243
  - # 4
    frequency:    2.7825810518
  - # 5
    frequency:    3.2171207449
  - # 6
    frequency:    3.8429477263

- q-position: [    0.4000000,    0.2000000,    0.6000000 ]
  distance:    0.1465276
  band:
  - # 1
    frequency:    1.3734209517
  - # 2
    frequency:    1.4717148063
  - # 3
    frequency:    2.1813936230
  - # 4
    frequency:    2.7835031520
  - # 5
    frequency:    3.1869006610
  - # 6
    frequency:    3.8424142820

- q-position: [    0.4050000,    0.2025000,    0.6075000 ]
  distance:    0.1483592
  band:
  - # 1
    frequency:    1.3746655700
  - # 2
    frequency:    1.4651583465
  - # 3
    frequency:    2.1728856372
  - # 4
    frequency:    2.7841037516
  - # 5
    frequency:    3.1559109438
  - # 6
    frequency:    3.8418298737

- q-position: [    0.4100000,    0.2050000,    0.6150000 ]
  distance:    0.1501908
  band:
  - # 1
    frequency:    1.3754977904
  - # 2
    frequency:    1.4583840976
  - # 3
    frequency:    2.1650326710
  - # 4
    frequency:    2.7843740409
  - # 5
    frequency:    3.1243737978
  - # 6
    frequency:    3.8411351311

- q-position: [    0.4150000,    0.2075000,    0.6225000 ]
  distance:    0.1520224
  band:
  - # 1
    frequency:    1.3759596952
  - # 2
    frequency:    1.4514873053
  - # 3
    frequency:    2.1578534631
  - # 4
    frequency:    2.7843105060
  - # 5
    frequency:    3.0925163017
  - # 6
    frequency:    3.8402880016

- q-position: [    0.4200000,    0.2100000,    0.6300000 ]
  distance:    0.1538539
  band:
  - # 1
    frequency:    1.3760956378
  - # 2
    frequency:    1.4445567602
  - # 3
    frequency:    2.1513616375
  - # 4
    frequency:    2.7839147910
  - # 5
    frequency:    3.0605713633
  - # 6
    frequency:    3.8392622631

- q-position: [    0.4250000,    0.2125000,    0.6375000 ]
  distance:    0.1556855
  band:
  - # 1
    frequency:    1.3759517814
  - # 2
    frequency:    1.4376735138
  - # 3
    frequency:    2.1455657147
  - # 4
    frequency:    2.7831934671
  - # 5
    frequency:    3.0287785292
  - # 6
    frequency:    3.8380459665

- q-position: [    0.4300000,    0.2150000,    0.6450000 ]
  distance:    0.1575171
  band:
  - # 1
    frequency:    1.3755755999
  - # 2
    frequency:    1.4309100020
  - # 3
    frequency:    2.1404686595
  - # 4
    frequency:    2.7821577213
  - # 5
    frequency:    2.9973845751
  - # 6
    frequency:    3.8366398789

- q-position: [    0.4350000,    0.2175000,    0.6525000 ]
  distance:    0.1593487
  band:
  - # 1
    frequency:    1.3750153396
  - # 2
    frequency:    1.4243295816
  - # 3
    frequency:    2.1360669822
  - # 4
    frequency:    2.7808229698
  - # 5
    frequency:    2.9666438217
  - # 6
    frequency:    3.8350559597

- q-position: [    0.4400000,    0.2200000,    0.6600000 ]
  distance:    0.1611803
  band:
  - # 1
    frequency:    1.3743194488
  - # 2
    frequency:    1.4179864617
  - # 3
    frequency:    2.1323494637
  - # 4
    frequency:    2.7792084105
  - # 5
    frequency:    2.9368181227
  - # 6
    frequency:    3.8333158836

- q-position: [    0.4450000,    0.2225000,    0.6675000 ]
  distance:    0.1630119
  band:
  - # 1
    frequency:    1.3735359768
  - # 2
    frequency:    1.4119259968
  - # 3
    frequency:    2.1292956248
  - # 4
    frequency:    2.7773365212
  - # 5
    frequency:    2.9081764468
  - # 6
    frequency:    3.8314496126

- q-position: [    0.4500000,    0.2250000,    0.6750000 ]
  distance:    0.1648435
  band:
  - # 1
    frequency:    1.3727119542
  - # 2
    frequency:    1.4061852892
  - # 3
    frequency:    2.1268741338
  - # 4
    frequency:    2.7752325173
  - # 5
    frequency:    2.8809939436
  - # 6
    frequency:    3.8294940142

- q-position: [    0.4550000,    0.2275000,    0.6825000 ]
  distance:    0.1666751
  band:
  - # 1
    frequency:    1.3718927592
  - # 2
    frequency:    1.4007940405
  - # 3