14.400
  27.95473  -0.00000   0.00000  -0.00000  27.95473  -0.00000   0.00000   0.00000  27.95473
   4.69943   0.00000   0.00000   0.00000   4.69943   0.00000   0.00000   0.00000   4.69942
  -4.69596   0.00000   0.00000   0.00000  -4.69596   0.00000   0.00000   0.00000  -4.69596
