natom:  128
displacements:
- atom:    1
  direction:
    [   1.0000000000000000,  0.0000000000000000,  0.0000000000000000 ]
  displacement:
    [   0.0000000000000000,  0.0070710678118655,  0.0070710678118655 ]
- atom:   65
  direction:
    [   1.0000000000000000,  0.0000000000000000,  0.0000000000000000 ]
  displacement:
    [   0.0000000000000000,  0.0070710678118655,  0.0070710678118655 ]
lattice:
- [    0.000000000000000,  12.208312757375500,  12.208312757375500 ]
- [   12.208312757375500,   0.000000000000000,  12.208312757375500 ]
- [   12.208312757375500,  12.208312757375500,   0.000000000000000 ]
atoms:
- symbol: Pb # 1
  position: [   0.00000000000000,  0.00000000000000,  0.00000000000000 ]
- symbol: Pb # 2
  position: [   0.25000000000000,  0.00000000000000,  0.00000000000000 ]
- symbol: Pb # 3
  position: [   0.50000000000000,  0.00000000000000,  0.00000000000000 ]
- symbol: Pb # 4
  position: [   0.75000000000000,  0.00000000000000,  0.00000000000000 ]
- symbol: Pb # 5
  position: [   0.00000000000000,  0.25000000000000,  0.00000000000000 ]
- symbol: Pb # 6
  position: [   0.25000000000000,  0.25000000000000,  0.00000000000000 ]
- symbol: Pb # 7
  position: [   0.50000000000000,  0.25000000000000,  0.00000000000000 ]
- symbol: Pb # 8
  position: [   0.75000000000000,  0.25000000000000,  0.00000000000000 ]
- symbol: Pb # 9
  position: [   0.00000000000000,  0.50000000000000,  0.00000000000000 ]
- symbol: Pb # 10
  position: [   0.25000000000000,  0.50000000000000,  0.00000000000000 ]
- symbol: Pb # 11
  position: [   0.50000000000000,  0.50000000000000,  0.00000000000000 ]
- symbol: Pb # 12
  position: [   0.75000000000000,  0.50000000000000,  0.00000000000000 ]
- symbol: Pb # 13
  position: [   0.00000000000000,  0.75000000000000,  0.00000000000000 ]
- symbol: Pb # 14
  position: [   0.25000000000000,  0.75000000000000,  0.00000000000000 ]
- symbol: Pb # 15
  position: [   0.50000000000000,  0.75000000000000,  0.00000000000000 ]
- symbol: Pb # 16
  position: [   0.75000000000000,  0.75000000000000,  0.00000000000000 ]
- symbol: Pb # 17
  position: [   0.00000000000000,  0.00000000000000,  0.25000000000000 ]
- symbol: Pb # 18
  position: [   0.25000000000000,  0.00000000000000,  0.25000000000000 ]
- symbol: Pb # 19
  position: [   0.50000000000000,  0.00000000000000,  0.25000000000000 ]
- symbol: Pb # 20
  position: [   0.75000000000000,  0.00000000000000,  0.25000000000000 ]
- symbol: Pb # 21
  position: [   0.00000000000000,  0.25000000000000,  0.25000000000000 ]
- symbol: Pb # 22
  position: [   0.25000000000000,  0.25000000000000,  0.25000000000000 ]
- symbol: Pb # 23
  position: [   0.50000000000000,  0.25000000000000,  0.25000000000000 ]
- symbol: Pb # 24
  position: [   0.75000000000000,  0.25000000000000,  0.25000000000000 ]
- symbol: Pb # 25
  position: [   0.00000000000000,  0.50000000000000,  0.25000000000000 ]
- symbol: Pb # 26
  position: [   0.25000000000000,  0.50000000000000,  0.25000000000000 ]
- symbol: Pb # 27
  position: [   0.50000000000000,  0.50000000000000,  0.25000000000000 ]
- symbol: Pb # 28
  position: [   0.75000000000000,  0.50000000000000,  0.25000000000000 ]
- symbol: Pb # 29
  position: [   0.00000000000000,  0.75000000000000,  0.25000000000000 ]
- symbol: Pb # 30
  position: [   0.25000000000000,  0.75000000000000,  0.25000000000000 ]
- symbol: Pb # 31
  position: [   0.50000000000000,  0.75000000000000,  0.25000000000000 ]
- symbol: Pb # 32
  position: [   0.75000000000000,  0.75000000000000,  0.25000000000000 ]
- symbol: Pb # 33
  position: [   0.00000000000000,  0.00000000000000,  0.50000000000000 ]
- symbol: Pb # 34
  position: [   0.25000000000000,  0.00000000000000,  0.50000000000000 ]
- symbol: Pb # 35
  position: [   0.50000000000000,  0.00000000000000,  0.50000000000000 ]
- symbol: Pb # 36
  position: [   0.75000000000000,  0.00000000000000,  0.50000000000000 ]
- symbol: Pb # 37
  position: [   0.00000000000000,  0.25000000000000,  0.50000000000000 ]
- symbol: Pb # 38
  position: [   0.25000000000000,  0.25000000000000,  0.50000000000000 ]
- symbol: Pb # 39
  position: [   0.50000000000000,  0.25000000000000,  0.50000000000000 ]
- symbol: Pb # 40
  position: [   0.75000000000000,  0.25000000000000,  0.50000000000000 ]
- symbol: Pb # 41
  position: [   0.00000000000000,  0.50000000000000,  0.50000000000000 ]
- symbol: Pb # 42
  position: [   0.25000000000000,  0.50000000000000,  0.50000000000000 ]
- symbol: Pb # 43
  position: [   0.50000000000000,  0.50000000000000,  0.50000000000000 ]
- symbol: Pb # 44
  position: [   0.75000000000000,  0.50000000000000,  0.50000000000000 ]
- symbol: Pb # 45
  position: [   0.00000000000000,  0.75000000000000,  0.50000000000000 ]
- symbol: Pb # 46
  position: [   0.25000000000000,  0.75000000000000,  0.50000000000000 ]
- symbol: Pb # 47
  position: [   0.50000000000000,  0.75000000000000,  0.50000000000000 ]
- symbol: Pb # 48
  position: [   0.75000000000000,  0.75000000000000,  0.50000000000000 ]
- symbol: Pb # 49
  position: [   0.00000000000000,  0.00000000000000,  0.75000000000000 ]
- symbol: Pb # 50
  position: [   0.25000000000000,  0.00000000000000,  0.75000000000000 ]
- symbol: Pb # 51
  position: [   0.50000000000000,  0.00000000000000,  0.75000000000000 ]
- symbol: Pb # 52
  position: [   0.75000000000000,  0.00000000000000,  0.75000000000000 ]
- symbol: Pb # 53
  position: [   0.00000000000000,  0.25000000000000,  0.75000000000000 ]
- symbol: Pb # 54
  position: [   0.25000000000000,  0.25000000000000,  0.75000000000000 ]
- symbol: Pb # 55
  position: [   0.50000000000000,  0.25000000000000,  0.75000000000000 ]
- symbol: Pb # 56
  position: [   0.75000000000000,  0.25000000000000,  0.75000000000000 ]
- symbol: Pb # 57
  position: [   0.00000000000000,  0.50000000000000,  0.75000000000000 ]
- symbol: Pb # 58
  position: [   0.25000000000000,  0.50000000000000,  0.75000000000000 ]
- symbol: Pb # 59
  position: [   0.50000000000000,  0.50000000000000,  0.75000000000000 ]
- symbol: Pb # 60
  position: [   0.75000000000000,  0.50000000000000,  0.75000000000000 ]
- symbol: Pb # 61
  position: [   0.00000000000000,  0.75000000000000,  0.75000000000000 ]
- symbol: Pb # 62
  position: [   0.25000000000000,  0.75000000000000,  0.75000000000000 ]
- symbol: Pb # 63
  position: [   0.50000000000000,  0.75000000000000,  0.75000000000000 ]
- symbol: Pb # 64
  position: [   0.75000000000000,  0.75000000000000,  0.75000000000000 ]
- symbol: Se # 65
  position: [   0.12500000000000,  0.12500000000000,  0.12500000000000 ]
- symbol: Se # 66
  position: [   0.37500000000000,  0.12500000000000,  0.12500000000000 ]
- symbol: Se # 67
  position: [   0.62500000000000,  0.12500000000000,  0.12500000000000 ]
- symbol: Se # 68
  position: [   0.87500000000000,  0.12500000000000,  0.12500000000000 ]
- symbol: Se # 69
  position: [   0.12500000000000,  0.37500000000000,  0.12500000000000 ]
- symbol: Se # 70
  position: [   0.37500000000000,  0.37500000000000,  0.12500000000000 ]
- symbol: Se # 71
  position: [   0.62500000000000,  0.37500000000000,  0.12500000000000 ]
- symbol: Se # 72
  position: [   0.87500000000000,  0.37500000000000,  0.12500000000000 ]
- symbol: Se # 73
  position: [   0.12500000000000,  0.62500000000000,  0.12500000000000 ]
- symbol: Se # 74
  position: [   0.37500000000000,  0.62500000000000,  0.12500000000000 ]
- symbol: Se # 75
  position: [   0.62500000000000,  0.62500000000000,  0.12500000000000 ]
- symbol: Se # 76
  position: [   0.87500000000000,  0.62500000000000,  0.12500000000000 ]
- symbol: Se # 77
  position: [   0.12500000000000,  0.87500000000000,  0.12500000000000 ]
- symbol: Se # 78
  position: [   0.37500000000000,  0.87500000000000,  0.12500000000000 ]
- symbol: Se # 79
  position: [   0.62500000000000,  0.87500000000000,  0.12500000000000 ]
- symbol: Se # 80
  position: [   0.87500000000000,  0.87500000000000,  0.12500000000000 ]
- symbol: Se # 81
  position: [   0.12500000000000,  0.12500000000000,  0.37500000000000 ]
- symbol: Se # 82
  position: [   0.37500000000000,  0.12500000000000,  0.37500000000000 ]
- symbol: Se # 83
  position: [   0.62500000000000,  0.12500000000000,  0.37500000000000 ]
- symbol: Se # 84
  position: [   0.87500000000000,  0.12500000000000,  0.37500000000000 ]
- symbol: Se # 85
  position: [   0.12500000000000,  0.37500000000000,  0.37500000000000 ]
- symbol: Se # 86
  position: [   0.37500000000000,  0.37500000000000,  0.37500000000000 ]
- symbol: Se # 87
  position: [   0.62500000000000,  0.37500000000000,  0.37500000000000 ]
- symbol: Se # 88
  position: [   0.87500000000000,  0.37500000000000,  0.37500000000000 ]
- symbol: Se # 89
  position: [   0.12500000000000,  0.62500000000000,  0.37500000000000 ]
- symbol: Se # 90
  position: [   0.37500000000000,  0.62500000000000,  0.37500000000000 ]
- symbol: Se # 91
  position: [   0.62500000000000,  0.62500000000000,  0.37500000000000 ]
- symbol: Se # 92
  position: [   0.87500000000000,  0.62500000000000,  0.37500000000000 ]
- symbol: Se # 93
  position: [   0.12500000000000,  0.87500000000000,  0.37500000000000 ]
- symbol: Se # 94
  position: [   0.37500000000000,  0.87500000000000,  0.37500000000000 ]
- symbol: Se # 95
  position: [   0.62500000000000,  0.87500000000000,  0.37500000000000 ]
- symbol: Se # 96
  position: [   0.87500000000000,  0.87500000000000,  0.37500000000000 ]
- symbol: Se # 97
  position: [   0.12500000000000,  0.12500000000000,  0.62500000000000 ]
- symbol: Se # 98
  position: [   0.37500000000000,  0.12500000000000,  0.62500000000000 ]
- symbol: Se # 99
  position: [   0.62500000000000,  0.12500000000000,  0.62500000000000 ]
- symbol: Se # 100
  position: [   0.87500000000000,  0.12500000000000,  0.62500000000000 ]
- symbol: Se # 101
  position: [   0.12500000000000,  0.37500000000000,  0.62500000000000 ]
- symbol: Se # 102
  position: [   0.37500000000000,  0.37500000000000,  0.62500000000000 ]
- symbol: Se # 103
  position: [   0.62500000000000,  0.37500000000000,  0.62500000000000 ]
- symbol: Se # 104
  position: [   0.87500000000000,  0.37500000000000,  0.62500000000000 ]
- symbol: Se # 105
  position: [   0.12500000000000,  0.62500000000000,  0.62500000000000 ]
- symbol: Se # 106
  position: [   0.37500000000000,  0.62500000000000,  0.62500000000000 ]
- symbol: Se # 107
  position: [   0.62500000000000,  0.62500000000000,  0.62500000000000 ]
- symbol: Se # 108
  position: [   0.87500000000000,  0.62500000000000,  0.62500000000000 ]
- symbol: Se # 109
  position: [   0.12500000000000,  0.87500000000000,  0.62500000000000 ]
- symbol: Se # 110
  position: [   0.37500000000000,  0.87500000000000,  0.62500000000000 ]
- symbol: Se # 111
  position: [   0.62500000000000,  0.87500000000000,  0.62500000000000 ]
- symbol: Se # 112
  position: [   0.87500000000000,  0.87500000000000,  0.62500000000000 ]
- symbol: Se # 113
  position: [   0.12500000000000,  0.12500000000000,  0.87500000000000 ]
- symbol: Se # 114
  position: [   0.37500000000000,  0.12500000000000,  0.87500000000000 ]
- symbol: Se # 115
  position: [   0.62500000000000,  0.12500000000000,  0.87500000000000 ]
- symbol: Se # 116
  position: [   0.87500000000000,  0.12500000000000,  0.87500000000000 ]
- symbol: Se # 117
  position: [   0.12500000000000,  0.37500000000000,  0.87500000000000 ]
- symbol: Se # 118
  position: [   0.37500000000000,  0.37500000000000,  0.87500000000000 ]
- symbol: Se # 119
  position: [   0.62500000000000,  0.37500000000000,  0.87500000000000 ]
- symbol: Se # 120
  position: [   0.87500000000000,  0.37500000000000,  0.87500000000000 ]
- symbol: Se # 121
  position: [   0.12500000000000,  0.62500000000000,  0.87500000000000 ]
- symbol: Se # 122
  position: [   0.37500000000000,  0.62500000000000,  0.87500000000000 ]
- symbol: Se # 123
  position: [   0.62500000000000,  0.62500000000000,  0.87500000000000 ]
- symbol: Se # 124
  position: [   0.87500000000000,  0.62500000000000,  0.87500000000000 ]
- symbol: Se # 125
  position: [   0.12500000000000,  0.87500000000000,  0.87500000000000 ]
- symbol: Se # 126
  position: [   0.37500000000000,  0.87500000000000,  0.87500000000000 ]
- symbol: Se # 127
  position: [   0.62500000000000,  0.87500000000000,  0.87500000000000 ]
- symbol: Se # 128
  position: [   0.87500000000000,  0.87500000000000,  0.87500000000000 ]
