128  
2    

1    
  0.0000000000000000   0.0070710678118655   0.0070710678118655
   0.0000000000   -0.0220216200   -0.0220216200
   0.0000000000    0.0041576900    0.0041576900
   0.0000000000    0.0007660100    0.0007660100
   0.0000000000    0.0041122100    0.0041122100
   0.0037957800   -0.0003811900    0.0003450300
   0.0002493600    0.0001788000    0.0004451400
  -0.0002493700    0.0004432100    0.0001794900
  -0.0037782300    0.0003502000   -0.0003774600
   0.0004223500   -0.0000637800    0.0003439000
  -0.0000009400   -0.0000706900   -0.0000700700
  -0.0004223500    0.0003439000   -0.0000637800
   0.0000009400   -0.0000700700   -0.0000706900
   0.0037782300   -0.0003774600    0.0003502000
  -0.0037957800    0.0003450300   -0.0003811900
  -0.0002493600    0.0004451400    0.0001788000
   0.0002493700    0.0001794900    0.0004432100
   0.0037957800    0.0003450300   -0.0003811900
   0.0002493600    0.0004451400    0.0001788000
  -0.0002493700    0.0001794900    0.0004432100
  -0.0037782300   -0.0003774600    0.0003502000
   0.0003193300    0.0001097800    0.0001097800
  -0.0000003500    0.0001406700    0.0001406700
  -0.0003174100    0.0001106100    0.0001106100
  -0.0000120100    0.0002224100    0.0002224100
   0.0000680400   -0.0001398500    0.0001251700
  -0.0000697400    0.0001264500   -0.0001387800
  -0.0004216000    0.0002768800   -0.0000762000
   0.0004245600   -0.0000766200    0.0002743500
   0.0000000000   -0.0034372600   -0.0034414100
   0.0000000000    0.0045736400    0.0002257500
   0.0000000000    0.0007003900    0.0006967100
   0.0000000000    0.0002192600    0.0045794400
   0.0004223500    0.0003439000   -0.0000637800
  -0.0000009400   -0.0000700700   -0.0000706900
  -0.0004223500   -0.0000637800    0.0003439000
   0.0000009400   -0.0000706900   -0.0000700700
   0.0000680400    0.0001251700   -0.0001398500
  -0.0000697400   -0.0001387800    0.0001264500
  -0.0004216000   -0.0000762000    0.0002768800
   0.0004245600    0.0002743500   -0.0000766200
   0.0000000000   -0.0000783600   -0.0000783600
  -0.0000000000   -0.0001449400   -0.0001449400
  -0.0000000000    0.0009526800    0.0009526800
  -0.0000000000   -0.0001501200   -0.0001501200
   0.0000697400    0.0001264500   -0.0001387800
   0.0004216000    0.0002768800   -0.0000762000
  -0.0004245600   -0.0000766200    0.0002743500
  -0.0000680400   -0.0001398500    0.0001251700
   0.0037782300    0.0003502000   -0.0003774600
  -0.0037957800   -0.0003811900    0.0003450300
  -0.0002493600    0.0001788000    0.0004451400
   0.0002493700    0.0004432100    0.0001794900
   0.0000000000   -0.0034414100   -0.0034372600
   0.0000000000    0.0002257500    0.0045736400
   0.0000000000    0.0006967100    0.0007003900
   0.0000000000    0.0045794400    0.0002192600
   0.0000697400   -0.0001387800    0.0001264500
   0.0004216000   -0.0000762000    0.0002768800
  -0.0004245600    0.0002743500   -0.0000766200
  -0.0000680400    0.0001251700   -0.0001398500
   0.0003174100    0.0001106100    0.0001106100
   0.0000120100    0.0002224100    0.0002224100
  -0.0003193300    0.0001097800    0.0001097800
   0.0000003500    0.0001406700    0.0001406700
  -0.0006325200   -0.0003573300   -0.0003573300
  -0.0000003700   -0.0002343900   -0.0002343900
   0.0006278000   -0.0003559500   -0.0003559500
  -0.0000107800    0.0011606300    0.0011606300
  -0.0001106100   -0.0000407200   -0.0001239100
   0.0001103100   -0.0001239100   -0.0000414100
   0.0008623700   -0.0001730000    0.0000533400
  -0.0008675200    0.0000533300   -0.0001703900
   0.0000013600    0.0002731400    0.0002737700
   0.0005863600   -0.0003782400    0.0000535600
  -0.0000003000   -0.0001774800   -0.0001758400
  -0.0005890900    0.0000531100   -0.0003796600
   0.0000000000    0.0054160200    0.0011575800
   0.0000000000   -0.0012470800   -0.0007583200
   0.0000000000   -0.0007605300   -0.0012408700
   0.0000000000    0.0011632000    0.0050692600
  -0.0001106100   -0.0001239100   -0.0000407200
   0.0001103100   -0.0000414100   -0.0001239100
   0.0008623700    0.0000533400   -0.0001730000
  -0.0008675200   -0.0001703900    0.0000533300
  -0.0000001800   -0.0000134700   -0.0000134700
   0.0001030500   -0.0000737400   -0.0000737400
   0.0000033800   -0.0002401300   -0.0002401300
  -0.0001040000   -0.0000725000   -0.0000725000
   0.0000000000    0.0004823200    0.0004144500
   0.0000000000   -0.0019810100   -0.0002403700
   0.0000000000   -0.0002399800   -0.0019846800
   0.0000000000    0.0004176900    0.0004897300
  -0.0005863600   -0.0003782400    0.0000535600
   0.0000003000   -0.0001774800   -0.0001758400
   0.0005890900    0.0000531100   -0.0003796600
  -0.0000013600    0.0002731400    0.0002737700
   0.0000013600    0.0002737700    0.0002731400
   0.0005863600    0.0000535600   -0.0003782400
  -0.0000003000   -0.0001758400   -0.0001774800
  -0.0005890900   -0.0003796600    0.0000531100
   0.0000000000    0.0004144500    0.0004823200
   0.0000000000   -0.0002403700   -0.0019810100
   0.0000000000   -0.0019846800   -0.0002399800
   0.0000000000    0.0004897300    0.0004176900
  -0.0001030500   -0.0000737400   -0.0000737400
  -0.0000033800   -0.0002401300   -0.0002401300
   0.0001040000   -0.0000725000   -0.0000725000
   0.0000001800   -0.0000134700   -0.0000134700
  -0.0008623700   -0.0001730000    0.0000533400
   0.0008675200    0.0000533300   -0.0001703900
   0.0001106100   -0.0000407200   -0.0001239100
  -0.0001103100   -0.0001239100   -0.0000414100
   0.0000000000    0.0011575800    0.0054160200
   0.0000000000   -0.0007583200   -0.0012470800
   0.0000000000   -0.0012408700   -0.0007605300
   0.0000000000    0.0050692600    0.0011632000
  -0.0005863600    0.0000535600   -0.0003782400
   0.0000003000   -0.0001758400   -0.0001774800
   0.0005890900   -0.0003796600    0.0000531100
  -0.0000013600    0.0002737700    0.0002731400
  -0.0008623700    0.0000533400   -0.0001730000
   0.0008675200   -0.0001703900    0.0000533300
   0.0001106100   -0.0001239100   -0.0000407200
  -0.0001103100   -0.0000414100   -0.0001239100
   0.0000107800    0.0011606300    0.0011606300
   0.0006325200   -0.0003573300   -0.0003573300
   0.0000003700   -0.0002343900   -0.0002343900
  -0.0006278000   -0.0003559500   -0.0003559500

65   
  0.0000000000000000   0.0070710678118655   0.0070710678118655
  -0.0006278700   -0.0003573300   -0.0003573300
  -0.0000037500    0.0011591000    0.0011591000
   0.0006325200   -0.0003554000   -0.0003554000
   0.0000009600   -0.0002344700   -0.0002344700
   0.0000000000    0.0050761000    0.0011743100
   0.0000000000    0.0011429800    0.0054077900
   0.0000000000   -0.0010362800   -0.0009697200
   0.0000000000   -0.0009634500   -0.0010354900
   0.0000003600    0.0002725700    0.0002750200
  -0.0008653100    0.0000536600   -0.0003783500
  -0.0000015000   -0.0001761400   -0.0001776200
   0.0008639800   -0.0003797500    0.0000534400
  -0.0001098600   -0.0000420700   -0.0001240400
  -0.0005869900    0.0000538300   -0.0001742200
   0.0005880700   -0.0001682500    0.0000532500
   0.0001105500   -0.0001244100   -0.0000413800
   0.0000000000    0.0011743100    0.0050761000
   0.0000000000    0.0054077900    0.0011429800
   0.0000000000   -0.0009697200   -0.0010362800
   0.0000000000   -0.0010354900   -0.0009634500
   0.0000037500    0.0011591000    0.0011591000
  -0.0006325200   -0.0003554000   -0.0003554000
  -0.0000009600   -0.0002344700   -0.0002344700
   0.0006278700   -0.0003573300   -0.0003573300
  -0.0005880700    0.0000532500   -0.0001682500
  -0.0001105500   -0.0000413800   -0.0001244100
   0.0001098600   -0.0001240400   -0.0000420700
   0.0005869900   -0.0001742200    0.0000538300
  -0.0008639800    0.0000534400   -0.0003797500
  -0.0000003600    0.0002750200    0.0002725700
   0.0008653100   -0.0003783500    0.0000536600
   0.0000015000   -0.0001776200   -0.0001761400
   0.0000003600    0.0002750200    0.0002725700
  -0.0008653100   -0.0003783500    0.0000536600
  -0.0000015000   -0.0001776200   -0.0001761400
   0.0008639800    0.0000534400   -0.0003797500
  -0.0005880700   -0.0001682500    0.0000532500
  -0.0001105500   -0.0001244100   -0.0000413800
   0.0001098600   -0.0000420700   -0.0001240400
   0.0005869900    0.0000538300   -0.0001742200
  -0.0001041200   -0.0000719400   -0.0000719400
   0.0000001400   -0.0000140400   -0.0000140400
   0.0001052700   -0.0000723800   -0.0000723800
   0.0000062700   -0.0002399700   -0.0002399700
   0.0000000000    0.0006925700    0.0002082900
   0.0000000000    0.0002087200    0.0006942100
   0.0000000000   -0.0019880300   -0.0002391200
   0.0000000000   -0.0002408100   -0.0019792500
  -0.0001098600   -0.0001240400   -0.0000420700
  -0.0005869900   -0.0001742200    0.0000538300
   0.0005880700    0.0000532500   -0.0001682500
   0.0001105500   -0.0000413800   -0.0001244100
  -0.0008639800   -0.0003797500    0.0000534400
  -0.0000003600    0.0002725700    0.0002750200
   0.0008653100    0.0000536600   -0.0003783500
   0.0000015000   -0.0001761400   -0.0001776200
   0.0000000000    0.0002082900    0.0006925700
   0.0000000000    0.0006942100    0.0002087200
   0.0000000000   -0.0002391200   -0.0019880300
   0.0000000000   -0.0019792500   -0.0002408100
  -0.0000001400   -0.0000140400   -0.0000140400
  -0.0001052700   -0.0000723800   -0.0000723800
  -0.0000062700   -0.0002399700   -0.0002399700
   0.0001041200   -0.0000719400   -0.0000719400
   0.0000000000   -0.0255291900   -0.0255291900
   0.0000000000    0.0015943000    0.0015943000
   0.0000000000    0.0004599200    0.0004599200
   0.0000000000    0.0015605500    0.0015605500
   0.0014341800   -0.0000441400    0.0001464700
   0.0001919300    0.0001380500    0.0002978600
  -0.0001902600    0.0002976600    0.0001383400
  -0.0014276800    0.0001456400   -0.0000428500
   0.0002877800    0.0000526300    0.0001718900
   0.0000003600   -0.0000534600   -0.0000523600
  -0.0002877800    0.0001718900    0.0000526300
  -0.0000003600   -0.0000523600   -0.0000534600
   0.0014276800   -0.0000428500    0.0001456400
  -0.0014341800    0.0001464700   -0.0000441400
  -0.0001919300    0.0002978600    0.0001380500
   0.0001902600    0.0001383400    0.0002976600
   0.0014341800    0.0001464700   -0.0000441400
   0.0001919300    0.0002978600    0.0001380500
  -0.0001902600    0.0001383400    0.0002976600
  -0.0014276800   -0.0000428500    0.0001456400
   0.0002424600    0.0000874800    0.0000874800
   0.0000000700    0.0001480800    0.0001480800
  -0.0002411700    0.0000873500    0.0000873500
  -0.0000203500    0.0003680200    0.0003680200
   0.0000504700   -0.0001039100    0.0000562000
  -0.0000510400    0.0000556800   -0.0001034600
  -0.0004266400    0.0004632600    0.0001686500
   0.0004254500    0.0001693900    0.0004615200
   0.0000000000   -0.0012854600   -0.0012843700
   0.0000000000    0.0053605800    0.0003714500
   0.0000000000    0.0008902200    0.0008866700
   0.0000000000    0.0003645900    0.0053446600
   0.0002877800    0.0001718900    0.0000526300
   0.0000003600   -0.0000523600   -0.0000534600
  -0.0002877800    0.0000526300    0.0001718900
  -0.0000003600   -0.0000534600   -0.0000523600
   0.0000504700    0.0000562000   -0.0001039100
  -0.0000510400   -0.0001034600    0.0000556800
  -0.0004266400    0.0001686500    0.0004632600
   0.0004254500    0.0004615200    0.0001693900
   0.0000000000   -0.0001158700   -0.0001158700
   0.0000000000    0.0000358600    0.0000358600
   0.0000000000    0.0014702600    0.0014702600
   0.0000000000    0.0000368500    0.0000368500
   0.0000510400    0.0000556800   -0.0001034600
   0.0004266400    0.0004632600    0.0001686500
  -0.0004254500    0.0001693900    0.0004615200
  -0.0000504700   -0.0001039100    0.0000562000
   0.0014276800    0.0001456400   -0.0000428500
  -0.0014341800   -0.0000441400    0.0001464700
  -0.0001919300    0.0001380500    0.0002978600
   0.0001902600    0.0002976600    0.0001383400
   0.0000000000   -0.0012843700   -0.0012854600
   0.0000000000    0.0003714500    0.0053605800
   0.0000000000    0.0008866700    0.0008902200
   0.0000000000    0.0053446600    0.0003645900
   0.0000510400   -0.0001034600    0.0000556800
   0.0004266400    0.0001686500    0.0004632600
  -0.0004254500    0.0004615200    0.0001693900
  -0.0000504700    0.0000562000   -0.0001039100
   0.0002411700    0.0000873500    0.0000873500
   0.0000203500    0.0003680200    0.0003680200
  -0.0002424600    0.0000874800    0.0000874800
  -0.0000000700    0.0001480800    0.0001480800
