mesh: [    48,    48,    48 ]
nqpoint: 2769   
natom:   2      
phonon:
- q-position: [    0.0000000,    0.0000000,    0.0000000 ]
  weight: 1    
  band:
  - # 1
    frequency:    -0.0022279839
  - # 2
    frequency:    -0.0022279839
  - # 3
    frequency:    -0.0022279839
  - # 4
    frequency:     1.5020765107
  - # 5
    frequency:     1.5020765107
  - # 6
    frequency:     1.5020765107

- q-position: [    0.0208333,    0.0000000,    0.0000000 ]
  weight: 8    
  band:
  - # 1
    frequency:     0.1366234854
  - # 2
    frequency:     0.1366234854
  - # 3
    frequency:     0.2005785617
  - # 4
    frequency:     1.5331097822
  - # 5
    frequency:     1.5331097822
  - # 6
    frequency:     3.6170315471

- q-position: [    0.0416667,    0.0000000,    0.0000000 ]
  weight: 8    
  band:
  - # 1
    frequency:     0.2671523187
  - # 2
    frequency:     0.2671523187
  - # 3
    frequency:     0.3989452227
  - # 4
    frequency:     1.6222029780
  - # 5
    frequency:     1.6222029780
  - # 6
    frequency:     3.6539838440

- q-position: [    0.0625000,    0.0000000,    0.0000000 ]
  weight: 8    
  band:
  - # 1
    frequency:     0.3883837980
  - # 2
    frequency:     0.3883837980
  - # 3
    frequency:     0.5929852241
  - # 4
    frequency:     1.7586538262
  - # 5
    frequency:     1.7586538262
  - # 6
    frequency:     3.7131440911

- q-position: [    0.0833333,    0.0000000,    0.0000000 ]
  weight: 8    
  band:
  - # 1
    frequency:     0.5003921298
  - # 2
    frequency:     0.5003921298
  - # 3
    frequency:     0.7808661581
  - # 4
    frequency:     1.9284139579
  - # 5
    frequency:     1.9284139579
  - # 6
    frequency:     3.7911399437

- q-position: [    0.1041667,    0.0000000,    0.0000000 ]
  weight: 8    
  band:
  - # 1
    frequency:     0.6048176277
  - # 2
    frequency:     0.6048176277
  - # 3
    frequency:     0.9610960251
  - # 4
    frequency:     2.1176258309
  - # 5
    frequency:     2.1176258309
  - # 6
    frequency:     3.8837250787

- q-position: [    0.1250000,    0.0000000,    0.0000000 ]
  weight: 8    
  band:
  - # 1
    frequency:     0.7033606707
  - # 2
    frequency:     0.7033606707
  - # 3
    frequency:     1.1325768610
  - # 4
    frequency:     2.3146679236
  - # 5
    frequency:     2.3146679236
  - # 6
    frequency:     3.9861359981

- q-position: [    0.1458333,    0.0000000,    0.0000000 ]
  weight: 8    
  band:
  - # 1
    frequency:     0.7972011975
  - # 2
    frequency:     0.7972011975
  - # 3
    frequency:     1.2946282727
  - # 4
    frequency:     2.5106272679
  - # 5
    frequency:     2.5106272679
  - # 6
    frequency:     4.0934302934

- q-position: [    0.1666667,    0.0000000,    0.0000000 ]
  weight: 8    
  band:
  - # 1
    frequency:     0.8869971066
  - # 2
    frequency:     0.8869971066
  - # 3
    frequency:     1.4469919231
  - # 4
    frequency:     2.6989875109
  - # 5
    frequency:     2.6989875109
  - # 6
    frequency:     4.2007724894

- q-position: [    0.1875000,    0.0000000,    0.0000000 ]
  weight: 8    
  band:
  - # 1
    frequency:     0.9730468958
  - # 2
    frequency:     0.9730468958
  - # 3
    frequency:     1.5898243173
  - # 4
    frequency:     2.8751433835
  - # 5
    frequency:     2.8751433835
  - # 6
    frequency:     4.3036542464

- q-position: [    0.2083333,    0.0000000,    0.0000000 ]
  weight: 8    
  band:
  - # 1
    frequency:     1.0554359866
  - # 2
    frequency:     1.0554359866
  - # 3
    frequency:     1.7236795249
  - # 4
    frequency:     3.0359824456
  - # 5
    frequency:     3.0359824456
  - # 6
    frequency:     4.3980514989

- q-position: [    0.2291667,    0.0000000,    0.0000000 ]
  weight: 8    
  band:
  - # 1
    frequency:     1.1341291860
  - # 2
    frequency:     1.1341291860
  - # 3
    frequency:     1.8494775804
  - # 4
    frequency:     3.1795756178
  - # 5
    frequency:     3.1795756178
  - # 6
    frequency:     4.4805299844

- q-position: [    0.2500000,    0.0000000,    0.0000000 ]
  weight: 8    
  band:
  - # 1
    frequency:     1.2090185318
  - # 2
    frequency:     1.2090185318
  - # 3
    frequency:     1.9684502647
  - # 4
    frequency:     3.3049544535
  - # 5
    frequency:     3.3049544535
  - # 6
    frequency:     4.5483135970

- q-position: [    0.2708333,    0.0000000,    0.0000000 ]
  weight: 8    
  band:
  - # 1
    frequency:     1.2799427667
  - # 2
    frequency:     1.2799427667
  - # 3
    frequency:     2.0820547271
  - # 4
    frequency:     3.4119448250
  - # 5
    frequency:     3.4119448250
  - # 6
    frequency:     4.5993293763

- q-position: [    0.2916667,    0.0000000,    0.0000000 ]
  weight: 8    
  band:
  - # 1
    frequency:     1.3466913303
  - # 2
    frequency:     1.3466913303
  - # 3
    frequency:     2.1918469878
  - # 4
    frequency:     3.5010332740
  - # 5
    frequency:     3.5010332740
  - # 6
    frequency:     4.6322409666

- q-position: [    0.3125000,    0.0000000,    0.0000000 ]
  weight: 8    
  band:
  - # 1
    frequency:     1.4090015602
  - # 2
    frequency:     1.4090015602
  - # 3
    frequency:     2.2993111652
  - # 4
    frequency:     3.5732501094
  - # 5
    frequency:     3.5732501094
  - # 6
    frequency:     4.6464807235

- q-position: [    0.3333333,    0.0000000,    0.0000000 ]
  weight: 8    
  band:
  - # 1
    frequency:     1.4665547711
  - # 2
    frequency:     1.4665547711
  - # 3
    frequency:     2.4056450038
  - # 4
    frequency:     3.6300592634
  - # 5
    frequency:     3.6300592634
  - # 6
    frequency:     4.6422903973

- q-position: [    0.3541667,    0.0000000,    0.0000000 ]
  weight: 8    
  band:
  - # 1
    frequency:     1.5189750330
  - # 2
    frequency:     1.5189750330
  - # 3
    frequency:     2.5115058337
  - # 4
    frequency:     3.6732488544
  - # 5
    frequency:     3.6732488544
  - # 6
    frequency:     4.6207821258

- q-position: [    0.3750000,    0.0000000,    0.0000000 ]
  weight: 8    
  band:
  - # 1
    frequency:     1.5658334024
  - # 2
    frequency:     1.5658334024
  - # 3
    frequency:     2.6167211489
  - # 4
    frequency:     3.7048189746
  - # 5
    frequency:     3.7048189746
  - # 6
    frequency:     4.5840353561

- q-position: [    0.3958333,    0.0000000,    0.0000000 ]
  weight: 8    
  band:
  - # 1
    frequency:     1.6066596800
  - # 2
    frequency:     1.6066596800
  - # 3
    frequency:     2.7199644378
  - # 4
    frequency:     3.7268650689
  - # 5
    frequency:     3.7268650689
  - # 6
    frequency:     4.5352491640

- q-position: [    0.4166667,    0.0000000,    0.0000000 ]
  weight: 8    
  band:
  - # 1
    frequency:     1.6409630273
  - # 2
    frequency:     1.6409630273
  - # 3
    frequency:     2.8183986158
  - # 4
    frequency:     3.7414569995
  - # 5
    frequency:     3.7414569995
  - # 6
    frequency:     4.4789633377

- q-position: [    0.4375000,    0.0000000,    0.0000000 ]
  weight: 8    
  band:
  - # 1
    frequency:     1.6682615962
  - # 2
    frequency:     1.6682615962
  - # 3
    frequency:     2.9073303726
  - # 4
    frequency:     3.7505159552
  - # 5
    frequency:     3.7505159552
  - # 6
    frequency:     4.4213124663

- q-position: [    0.4583333,    0.0000000,    0.0000000 ]
  weight: 8    
  band:
  - # 1
    frequency:     1.6881194283
  - # 2
    frequency:     1.6881194283
  - # 3
    frequency:     2.9800803318
  - # 4
    frequency:     3.7556939829
  - # 5
    frequency:     3.7556939829
  - # 6
    frequency:     4.3701062720

- q-position: [    0.4791667,    0.0000000,    0.0000000 ]
  weight: 8    
  band:
  - # 1
    frequency:     1.7001864469
  - # 2
    frequency:     1.7001864469
  - # 3
    frequency:     3.0286294549
  - # 4
    frequency:     3.7582637995
  - # 5
    frequency:     3.7582637995
  - # 6
    frequency:     4.3341661609

- q-position: [    0.5000000,    0.0000000,    0.0000000 ]
  weight: 4    
  band:
  - # 1
    frequency:     1.7042351161
  - # 2
    frequency:     1.7042351161
  - # 3
    frequency:     3.0458066527
  - # 4
    frequency:     3.7590288248
  - # 5
    frequency:     3.7590288248
  - # 6
    frequency:     4.3211394537

- q-position: [    0.0208333,    0.0208333,    0.0000000 ]
  weight: 6    
  band:
  - # 1
    frequency:     0.1469162627
  - # 2
    frequency:     0.1469162627
  - # 3
    frequency:     0.2448157541
  - # 4
    frequency:     1.5381615003
  - # 5
    frequency:     1.5381615003
  - # 6
    frequency:     3.6251420658

- q-position: [    0.0416667,    0.0208333,    0.0000000 ]
  weight: 24   
  band:
  - # 1
    frequency:     0.2439527524
  - # 2
    frequency:     0.2493236970
  - # 3
    frequency:     0.3946847044
  - # 4
    frequency:     1.6020566397
  - # 5
    frequency:     1.6074722666
  - # 6
    frequency:     3.6551936519

- q-position: [    0.0625000,    0.0208333,    0.0000000 ]
  weight: 24   
  band:
  - # 1
    frequency:     0.3560683332
  - # 2
    frequency:     0.3660833142
  - # 3
    frequency:     0.5688876589
  - # 4
    frequency:     1.7165669352
  - # 5
    frequency:     1.7311958732
  - # 6
    frequency:     3.7060664268

- q-position: [    0.0833333,    0.0208333,    0.0000000 ]
  weight: 24   
  band:
  - # 1
    frequency:     0.4650777503
  - # 2
    frequency:     0.4776743671
  - # 3
    frequency:     0.7476261788
  - # 4
    frequency:     1.8690283050
  - # 5
    frequency:     1.8927535369
  - # 6
    frequency:     3.7763062749

- q-position: [    0.1041667,    0.0208333,    0.0000000 ]
  weight: 24   
  band:
  - # 1
    frequency:     0.5679864489
  - # 2
    frequency:     0.5828584107
  - # 3
    frequency:     0.9236765827
  - # 4
    frequency:     2.0457543260
  - # 5
    frequency:     2.0777247561
  - # 6
    frequency:     3.8622541258

- q-position: [    0.1250000,    0.0208333,    0.0000000 ]
  weight: 24   
  band:
  - # 1
    frequency:     0.6651184764
  - # 2
    frequency:     0.6828002177
  - # 3
    frequency:     1.0936421115
  - # 4
    frequency:     2.2345494176
  - # 5
    frequency:     2.2738295267
  - # 6
    frequency:     3.9594456618

- q-position: [    0.1458333,    0.0208333,    0.0000000 ]
  weight: 24   
  band:
  - # 1
    frequency:     0.7573338884
  - # 2
    frequency:     0.7785531688
  - # 3
    frequency:     1.2557243111
  - # 4
    frequency:     2.4257042686
  - # 5
    frequency:     2.4714446788
  - # 6
    frequency:     4.0630969394

- q-position: [    0.1666667,    0.0208333,    0.0000000 ]
  weight: 24   
  band:
  - # 1
    frequency:     0.8453197205
  - # 2
    frequency:     0.8706912297
  - # 3
    frequency:     1.4090214506
  - # 4
    frequency:     2.6119656653
  - # 5
    frequency:     2.6634083383
  - # 6
    frequency:     4.1684250135

- q-position: [    0.1875000,    0.0208333,    0.0000000 ]
  weight: 24   
  band:
  - # 1
    frequency:     0.9295055653
  - # 2
    frequency:     0.9594050786
  - # 3
    frequency:     1.5532636360
  - # 4
    frequency:     2.7881338233
  - # 5
    frequency:     2.8445598841
  - # 6
    frequency:     4.2708899691

- q-position: [    0.2083333,    0.0208333,    0.0000000 ]
  weight: 24   
  band:
  - # 1
    frequency:     1.0101300647
  - # 2
    frequency:     1.0446503086
  - # 3
    frequency:     1.6886898666
  - # 4
    frequency:     2.9506384215
  - # 5
    frequency:     3.0113086783
  - # 6
    frequency:     4.3663711264

- q-position: [    0.2291667,    0.0208333,    0.0000000 ]
  weight: 24   
  band:
  - # 1
    frequency:     1.0873104367
  - # 2
    frequency:     1.1262533339
  - # 3
    frequency:     1.8159711871
  - # 4
    frequency:     3.0971996444
  - # 5
    frequency:     3.1613066113
  - # 6
    frequency:     4.4512884836

- q-position: [    0.2500000,    0.0208333,    0.0000000 ]
  weight: 24   
  band:
  - # 1
    frequency:     1.1610840112
  - # 2
    frequency:     1.2039711795
  - # 3
    frequency:     1.9361397263
  - # 4
    frequency:     3.2265765708
  - # 5
    frequency:     3.2932127263
  - # 6
    frequency:     4.5226830992

- q-position: [    0.2708333,    0.0208333,    0.0000000 ]
  weight: 24   
  band:
  - # 1
    frequency:     1.2314247564
  - # 2
    frequency:     1.2775194531
  - # 3
    frequency:     2.0505014423
  - # 4
    frequency:     3.3383784734
  - # 5
    frequency:     3.4065205425
  - # 6
    frequency:     4.5782702292

- q-position: [    0.2916667,    0.0208333,    0.0000000 ]
  weight: 24   
  band:
  - # 1
    frequency:     1.2982440126
  - # 2
    frequency:     1.3465816767
  - # 3
    frequency:     2.1605184890
  - # 4
    frequency:     3.4329150425
  - # 5
    frequency:     3.5014228620
  - # 6
    frequency:     4.6164774180

- q-position: [    0.3125000,    0.0208333,    0.0000000 ]
  weight: 24   
  band:
  - # 1
    frequency:     1.3613835718
  - # 2
    frequency:     1.4108092389
  - # 3
    frequency:     2.2676529963
  - # 4
    frequency:     3.5110680767
  - # 5
    frequency:     3.5786965872
  - # 6
    frequency:     4.6364779251

- q-position: [    0.3333333,    0.0208333,    0.0000000 ]
  weight: 24   
  band:
  - # 1
    frequency:     1.4206070995
  - # 2
    frequency:     1.4698183770
  - # 3
    frequency:     2.3731694575
  - # 4
    frequency:     3.5741733175
  - # 5
    frequency:     3.6395964100
  - # 6
    frequency:     4.6382290538

- q-position: [    0.3541667,    0.0208333,    0.0000000 ]
  weight: 24   
  band:
  - # 1
    frequency:     1.4755941788
  - # 2
    frequency:     1.5231890070
  - # 3
    frequency:     2.4778972747
  - # 4
    frequency:     3.6239055619
  - # 5
    frequency:     3.6857505219
  - # 6
    frequency:     4.6225259173

- q-position: [    0.3750000,    0.0208333,    0.0000000 ]
  weight: 24   
  band:
  - # 1
    frequency:     1.5259401014
  - # 2
    frequency:     1.5704691546
  - # 3
    frequency:     2.5819568772
  - # 4
    frequency:     3.6621632084
  - # 5
    frequency:     3.7190541536
  - # 6
    frequency:     4.5910841735

- q-position: [    0.3958333,    0.0208333,    0.0000000 ]
  weight: 24   
  band:
  - # 1
    frequency:     1.5711637450
  - # 2
    frequency:     1.6111875371
  - # 3
    frequency:     2.6844515927
  - # 4
    frequency:     3.6909505124
  - # 5
    frequency:     3.7415582957
  - # 6
    frequency:     4.5466691519

- q-position: [    0.4166667,    0.0208333,    0.0000000 ]
  weight: 24   
  band:
  - # 1
    frequency:     1.6107251428
  - # 2
    frequency:     1.6448752451
  - # 3
    frequency:     2.7831280688
  - # 4
    frequency:     3.7122575763
  - # 5
    frequency:     3.7553517098
  - # 6
    frequency:     4.4932872998

- q-position: [    0.4375000,    0.0208333,    0.0000000 ]
  weight: 24   
  band:
  - # 1
    frequency:     1.6440533115
  - # 2
    frequency:     1.6710956555
  - # 3
    frequency:     2.8740327473
  - # 4
    frequency:     3.7279399293
  - # 5
    frequency:     3.7624345234
  - # 6
    frequency:     4.4364267611

- q-position: [    0.4583333,    0.0208333,    0.0000000 ]
  weight: 24   
  band:
  - # 1
    frequency:     1.6705832743
  - # 2
    frequency:     1.6894799510
  - # 3
    frequency:     2.9513001383
  - # 4
    frequency:     3.7396017281
  - # 5
    frequency:     3.7645828312
  - # 6
    frequency:     4.3832179884

- q-position: [    0.4791667,    0.0208333,    0.0000000 ]
  weight: 24   
  band:
  - # 1
    frequency:     1.6897989917
  - # 2
    frequency:     1.6997639970
  - # 3
    frequency:     3.0074816156
  - # 4
    frequency:     3.7484890395
  - # 5
    frequency:     3.7632135452
  - # 6
    frequency:     4.3420964434

- q-position: [    0.5000000,    0.0208333,    0.0000000 ]
  weight: 24   
  band:
  - # 1
    frequency:     1.7012765971
  - # 2
    frequency:     1.7018209736
  - # 3
    frequency:     3.0351183892
  - # 4
    frequency:     3.7554017421
  - # 5
    frequency:     3.7592895203
  - # 6
    frequency:     4.3212202978

- q-position: [   -0.4791667,    0.0208333,    0.0000000 ]
  weight: 24   
  band:
  - # 1
    frequency:     1.6956122498
  - # 2
    frequency:     1.7047208909
  - # 3
    frequency:     3.0295359154
  - # 4
    frequency:     3.7534570068
  - # 5
    frequency:     3.7606333186
  - # 6
    frequency:     4.3254658692

- q-position: [   -0.4583333,    0.0208333,    0.0000000 ]
  weight: 24   
  band:
  - # 1
    frequency:     1.6813797351
  - # 2
    frequency:     1.6999884836
  - # 3
    frequency:     2.9917864567
  - # 4
    frequency:     3.7457160094
  - # 5
    frequency:     3.7639462368
  - # 6
    frequency:     4.3537942299

- q-position: [   -0.4375000,    0.0208333,    0.0000000 ]
  weight: 24   
  band:
  - # 1
    frequency:     1.6595222813
  - # 2
    frequency:     1.6870936154
  - # 3
    frequency:     2.9277980218
  - # 4
    frequency:     3.7356199682
  - # 5
    frequency:     3.7645866168
  - # 6
    frequency:     4.3998904113

- q-position: [   -0.4166667,    0.0208333,    0.0000000 ]
  weight: 24   
  band:
  - # 1
    frequency:     1.6305268207
  - # 2
    frequency:     1.6661967209
  - # 3
    frequency:     2.8452864511
  - # 4
    frequency:     3.7223280289
  - # 5
    frequency:     3.7613364697
  - # 6
    frequency:     4.4552257240

- q-position: [   -0.3958333,    0.0208333,    0.0000000 ]
  weight: 24   
  band:
  - # 1
    frequency:     1.5949612478
  - # 2
    frequency:     1.6375796496
  - # 3
    frequency:     2.7512588394
  - # 4
    frequency:     3.7045394734
  - # 5
    frequency:     3.7525968418
  - # 6
    frequency:     4.5116903237

- q-position: [   -0.3750000,    0.0208333,    0.0000000 ]
  weight: 24   
  band:
  - # 1
    frequency:     1.5534262433
  - # 2
    frequency:     1.6016136545
  - # 3
    frequency:     2.6509358270
  - # 4
    frequency:     3.6805852970
  - # 5
    frequency:     3.7364923243
  - # 6
    frequency:     4.5626878130

- q-position: [   -0.3541667,    0.0208333,    0.0000000 ]
  weight: 24   
  band:
  - # 1
    frequency:     1.5065088432
  - # 2
    frequency:     1.5587263175
  - # 3
    frequency:     2.5476720195
  - # 4
    frequency:     3.6485567447
  - # 5
    frequency:     3.7109871496
  - # 6
    frequency:     4.6032393608

- q-position: [   -0.3333333,    0.0208333,    0.0000000 ]
  weight: 24   
  band:
  - # 1
    frequency:     1.4547437699
  - # 2
    frequency:     1.5093720716
  - # 3
    frequency:     2.4432380372
  - # 4
    frequency:     3.6064378438
  - # 5
    frequency:     3.6740049016
  - # 6
    frequency:     4.6297688979

- q-position: [   -0.3125000,    0.0208333,    0.0000000 ]
  weight: 24   
  band:
  - # 1
    frequency:     1.3985863450
  - # 2
    frequency:     1.4540088920
  - # 3
    frequency:     2.3381673003
  - # 4
    frequency:     3.5522334345
  - # 5
    frequency:     3.6235465711
  - # 6
    frequency:     4.6398723843

- q-position: [   -0.2916667,    0.0208333,    0.0000000 ]
  weight: 24   
  band:
  - # 1
    frequency:     1.3383983052
  - # 2
    frequency:     1.3930819133
  - # 3
    frequency:     2.2320832707
  - # 4
    frequency:     3.4840921083
  - # 5
    frequency:     3.5578043267
  - # 6
    frequency:     4.6321473886

- q-position: [   -0.2708333,    0.0208333,    0.0000000 ]
  weight: 24   
  band:
  - # 1
    frequency:     1.2744454746
  - # 2
    frequency:     1.3270134979
  - # 3
    frequency:     2.1239938503
  - # 4
    frequency:     3.4004249231
  - # 5
    frequency:     3.4752705096
  - # 6
    frequency:     4.6060809842

- q-position: [   -0.2500000,    0.0208333,    0.0000000 ]
  weight: 24   
  band:
  - # 1
    frequency:     1.2069044061
  - # 2
    frequency:     1.2561985386
  - # 3
    frequency:     2.0125518811
  - # 4
    frequency:     3.3000214374
  - # 5
    frequency:     3.3748430480
  - # 6
    frequency:     4.5619780540

- q-position: [   -0.2291667,    0.0208333,    0.0000000 ]
  weight: 24   
  band:
  - # 1
    frequency:     1.1358739504
  - # 2
    frequency:     1.1810032068
  - # 3
    frequency:     1.8962790343
  - # 4
    frequency:     3.1821658297
  - # 5
    frequency:     3.2559301133
  - # 6
    frequency:     4.5009136773

- q-position: [   -0.2083333,    0.0208333,    0.0000000 ]
  weight: 24   
  band:
  - # 1
    frequency:     1.0613870069
  - # 2
    frequency:     1.1017645857
  - # 3
    frequency:     1.7737496190
  - # 4
    frequency:     3.0467580029
  - # 5
    frequency:     3.1185589226
  - # 6
    frequency:     4.4246971883

- q-position: [   -0.1875000,    0.0208333,    0.0000000 ]
  weight: 24   
  band:
  - # 1
    frequency:     0.9834169104
  - # 2
    frequency:     1.0187873016
  - # 3
    frequency:     1.6437334358
  - # 4
    frequency:     2.8944480275
  - # 5
    frequency:     2.9634967359
  - # 6
    frequency:     4.3358378533

- q-position: [   -0.1666667,    0.0208333,    0.0000000 ]
  weight: 24   
  band:
  - # 1
    frequency:     0.9018714701
  - # 2
    frequency:     0.9323310889
  - # 3
    frequency:     1.5053015209
  - # 4
    frequency:     2.7267975088
  - # 5
    frequency:     2.7923968804
  - # 6
    frequency:     4.2375024206

- q-position: [   -0.1458333,    0.0208333,    0.0000000 ]
  weight: 24   
  band:
  - # 1
    frequency:     0.8165658346
  - # 2
    frequency:     0.8425801637
  - # 3
    frequency:     1.3579039172
  - # 4
    frequency:     2.5464884925
  - # 5
    frequency:     2.6079892891
  - # 6
    frequency:     4.1334534917

- q-position: [   -0.1250000,    0.0208333,    0.0000000 ]
  weight: 24   
  band:
  - # 1
    frequency:     0.7271658256
  - # 2
    frequency:     0.7495827573
  - # 3
    frequency:     1.2014340019
  - # 4
    frequency:     2.3576071447
  - # 5
    frequency:     2.4143419307
  - # 6
    frequency:     4.0279555857

- q-position: [   -0.1041667,    0.0208333,    0.0000000 ]
  weight: 24   
  band:
  - # 1
    frequency:     0.6331068373
  - # 2
    frequency:     0.6531542303
  - # 3
    frequency:     1.0363014183
  - # 4
    frequency:     2.1660261231
  - # 5
    frequency:     2.2172185008
  - # 6
    frequency:     3.9256341198

- q-position: [   -0.0833333,    0.0208333,    0.0000000 ]
  weight: 24   
  band:
  - # 1
    frequency:     0.5335537057
  - # 2
    frequency:     0.5527748050
  - # 3
    frequency:     0.8635542387
  - # 4
    frequency:     1.9798681341
  - # 5
    frequency:     2.0245223593
  - # 6
    frequency:     3.8312725046

- q-position: [   -0.0625000,    0.0208333,    0.0000000 ]
  weight: 24   
  band:
  - # 1
    frequency:     0.4276671703
  - # 2
    frequency:     0.4476531989
  - # 3
    frequency:     0.6851557904
  - # 4
    frequency:     1.8098985212
  - # 5
    frequency:     1.8466849985
  - # 6
    frequency:     3.7495333783

- q-position: [   -0.0416667,    0.0208333,    0.0000000 ]
  weight: 24   
  band:
  - # 1
    frequency:     0.3160560008
  - # 2
    frequency:     0.3375356487
  - # 3
    frequency:     0.5047958218
  - # 4
    frequency:     1.6694500872
  - # 5
    frequency:     1.6965583219
  - # 6
    frequency:     3.6845812411

- q-position: [   -0.0208333,    0.0208333,    0.0000000 ]
  weight: 12   
  band:
  - # 1
    frequency:     0.2067953558
  - # 2
    frequency:     0.2261294396
  - # 3
    frequency:     0.3311532569
  - # 4
    frequency:     1.5733925379
  - # 5
    frequency:     1.5880503470
  - # 6
    frequency:     3.6395437480

- q-position: [    0.0416667,    0.0416667,    0.0000000 ]
  weight: 6    
  band:
  - # 1
    frequency:     0.2831082561
  - # 2
    frequency:     0.2831082561
  - # 3
    frequency:     0.4874085277
  - # 4
    frequency:     1.6376831372
  - # 5
    frequency:     1.6376831372
  - # 6
    frequency:     3.6836463117

- q-position: [    0.0625000,    0.0416667,    0.0000000 ]
  weight: 24   
  band:
  - # 1
    frequency:     0.3612540044
  - # 2
    frequency:     0.3654864140
  - # 3
    frequency:     0.6227583939
  - # 4
    frequency:     1.7239822822
  - # 5
    frequency:     1.7306128022
  - # 6
    frequency:     3.7287110406

- q-position: [    0.0833333,    0.0416667,    0.0000000 ]
  weight: 24   
  band:
  - # 1
    frequency:     0.4526899467
  - # 2
    frequency:     0.4641031724
  - # 3
    frequency:     0.7754645292
  - # 4
    frequency:     1.8509164604
  - # 5
    frequency:     1.8721633608
  - # 6
    frequency:     3.7895720176

- q-position: [    0.1041667,    0.0416667,    0.0000000 ]
  weight: 24   
  band:
  - # 1
    frequency:     0.5457064985
  - # 2
    frequency:     0.5641684841
  - # 3
    frequency:     0.9343912946
  - # 4
    frequency:     2.0063019982
  - # 5
    frequency:     2.0442720074
  - # 6
    frequency:     3.8650740330

- q-position: [    0.1250000,    0.0416667,    0.0000000 ]
  weight: 24   
  band:
  - # 1
    frequency:     0.6363783972
  - # 2
    frequency:     0.6619981387
  - # 3
    frequency:     1.0932783808
  - # 4
    frequency:     2.1783322878
  - # 5
    frequency:     2.2326374057
  - # 6
    frequency:     3.9521301655

- q-position: [    0.1458333,    0.0416667,    0.0000000 ]
  weight: 24   
  band:
  - # 1
    frequency:     0.7237208113
  - # 2
    frequency:     0.7571086463
  - # 3
    frequency:     1.2483203655
  - # 4
    frequency:     2.3570055663
  - # 5
    frequency:     2.4264423327
  - # 6
    frequency:     4.0467131058

- q-position: [    0.1666667,    0.0416667,    0.0000000 ]
  weight: 24   
  band:
  - # 1
    frequency:     0.8076749898
  - # 2
    frequency:     0.8495424850
  - # 3
    frequency:     1.3972533014
  - # 4
    frequency:     2.5345164542
  - # 5
    frequency:     2.6176728195
  - # 6
    frequency:     4.1444860930

- q-position: [    0.1875000,    0.0416667,    0.0000000 ]
  weight: 24   
  band:
  - # 1
    frequency:     0.8884041050
  - # 2
    frequency:     0.9392389144
  - # 3
    frequency:     1.5388668066
  - # 4
    frequency:     2.7050907502
  - # 5
    frequency:     2.8004942105
  - # 6
    frequency:     4.2411662250

- q-position: [    0.2083333,    0.0416667,    0.0000000 ]
  weight: 24   
  band:
  - # 1
    frequency:     0.9660852126
  - # 2
    frequency:     1.0259764751
  - # 3
    frequency:     1.6727188631
  - # 4
    frequency:     2.8646515550
  - # 5
    frequency:     2.9707494397
  - # 6
    frequency:     4.3327555103

- q-position: [    0.2291667,    0.0416667,    0.0000000 ]
  weight: 24   
  band:
  - # 1
    frequency:     1.0408606672
  - # 2
    frequency:     1.1094275947
  - # 3
    frequency:     1.7989590142
  - # 4
    frequency:     3.0104964867
  - # 5
    frequency:     3.1255936914
  - # 6
    frequency:     4.4156938305

- q-position: [    0.2500000,    0.0416667,    0.0000000 ]
  weight: 24   
  band:
  - # 1
    frequency:     1.1128282248
  - # 2
    frequency:     1.1892094782
  - # 3
    frequency:     1.9182025496
  - # 4
    frequency:     3.1410348334
  - # 5
    frequency:     3.2632382512
  - # 6
    frequency:     4.4869603735

- q-position: [    0.2708333,    0.0416667,    0.0000000 ]
  weight: 24   
  band:
  - # 1
    frequency:     1.1820336513
  - # 2
    frequency:     1.2649125121
  - # 3
    frequency:     2.0314190997
  - # 4
    frequency:     3.2555811597
  - # 5
    frequency:     3.3827676884
  - # 6
    frequency:     4.5441414657

- q-position: [    0.2916667,    0.0416667,    0.0000000 ]
  weight: 24   
  band:
  - # 1
    frequency:     1.2484588889
  - # 2
    frequency:     1.3361097931
  - # 3
    frequency:     2.1398120501
  - # 4
    frequency:     3.3541889061
  - # 5
    frequency:     3.4840010852
  - # 6
    frequency:     4.5854787164

- q-position: [    0.3125000,    0.0416667,    0.0000000 ]
  weight: 24   
  band:
  - # 1
    frequency:     1.3120074976
  - # 2
    frequency:     1.4023547692
  - # 3
    frequency:     2.2446737335
  - # 4
    frequency:     3.4375085685
  - # 5
    frequency:     3.5673772080
  - # 6
    frequency:     4.6099086280

- q-position: [    0.3333333,    0.0416667,    0.0000000 ]
  weight: 24   
  band:
  - # 1
    frequency:     1.3724908826
  - # 2
    frequency:     1.4631740872
  - # 3
    frequency:     2.3472075304
  - # 4
    frequency:     3.5066593794
  - # 5
    frequency:     3.6338510006
  - # 6
    frequency:     4.6171031135

- q-position: [    0.3541667,    0.0416667,    0.0000000 ]
  weight: 24   
  band:
  - # 1
    frequency:     1.4296185752
  - # 2
    frequency:     1.5180628277
  - # 3
    frequency:     2.4483127768
  - # 4
    frequency:     3.5631075463
  - # 5
    frequency:     3.6847938964
  - # 6
    frequency:     4.6075201517

- q-position: [    0.3750000,    0.0416667,    0.0000000 ]
  weight: 24   
  band:
  - # 1
    frequency:     1.4829951377
  - # 2
    frequency:     1.5664887467
  - # 3
    frequency:     2.5483320508
  - # 4
    frequency:     3.6085472621
  - # 5
    frequency:     3.7218934791
  - # 6
    frequency:     4.5824753808

- q-position: [    0.3958333,    0.0416667,    0.0000000 ]
  weight: 24   
  band:
  - # 1
    frequency:     1.5321255695
  - # 2
    frequency:     1.6079097412
  - # 3
    frequency:     2.6467634121
  - # 4
    frequency:     3.6447829904
  - # 5
    frequency:     3.7470492646
  - # 6
    frequency:     4.5442481022

- q-position: [    0.4166667,    0.0416667,    0.0000000 ]
  weight: 24   
  band:
  - # 1
    frequency:     1.5764304100
  - # 2
    frequency:     1.6418045667
  - # 3
    frequency:     2.7419452863
  - # 4
    frequency:     3.6736132585
  - # 5
    frequency:     3.7622606198
  - # 6
    frequency:     4.4962350349

- q-position: [    0.4375000,    0.0416667,    0.0000000 ]
  weight: 24   
  band:
  - # 1
    frequency:     1.6152709132
  - # 2
    frequency:     1.6677125682
  - # 3
    frequency:     2.8307417398
  - # 4
    frequency:     3.6967176823
  - # 5
    frequency:     3.7694994310
  - # 6
    frequency:     4.4431483345

- q-position: [    0.4583333,    0.0416667,    0.0000000 ]
  weight: 24   
  band:
  - # 1