nqpoint: 404    
npath: 4      
natom: 2      
phonon:
- q-position: [    0.0000000,    0.0000000,    0.0000000 ]
  distance:    0.0000000
  band:
  - # 1
    frequency:   -0.0026883654
  - # 2
    frequency:   -0.0026883654
  - # 3
    frequency:   -0.0026866038
  - # 4
    frequency:    1.3097902032
  - # 5
    frequency:    1.3097902032
  - # 6
    frequency:    3.3605101229

- q-position: [    0.0050000,    0.0025000,    0.0075000 ]
  distance:    0.0017319
  band:
  - # 1
    frequency:    0.0347039637
  - # 2
    frequency:    0.0383860405
  - # 3
    frequency:    0.0564457171
  - # 4
    frequency:    1.3117794783
  - # 5
    frequency:    1.3120243364
  - # 6
    frequency:    3.3607822819

- q-position: [    0.0100000,    0.0050000,    0.0150000 ]
  distance:    0.0034637
  band:
  - # 1
    frequency:    0.0694272740
  - # 2
    frequency:    0.0767551384
  - # 3
    frequency:    0.1129396912
  - # 4
    frequency:    1.3177177155
  - # 5
    frequency:    1.3186954577
  - # 6
    frequency:    3.3615947341

- q-position: [    0.0150000,    0.0075000,    0.0225000 ]
  distance:    0.0051956
  band:
  - # 1
    frequency:    0.1038467448
  - # 2
    frequency:    0.1147833792
  - # 3
    frequency:    0.1693177198
  - # 4
    frequency:    1.3275172914
  - # 5
    frequency:    1.3297108093
  - # 6
    frequency:    3.3629354519

- q-position: [    0.0200000,    0.0100000,    0.0300000 ]
  distance:    0.0069274
  band:
  - # 1
    frequency:    0.1378634787
  - # 2
    frequency:    0.1523548244
  - # 3
    frequency:    0.2255498338
  - # 4
    frequency:    1.3410358781
  - # 5
    frequency:    1.3449193336
  - # 6
    frequency:    3.3647845444

- q-position: [    0.0250000,    0.0125000,    0.0375000 ]
  distance:    0.0086593
  band:
  - # 1
    frequency:    0.1713682679
  - # 2
    frequency:    0.1893513212
  - # 3
    frequency:    0.2815947920
  - # 4
    frequency:    1.3580817070
  - # 5
    frequency:    1.3641167945
  - # 6
    frequency:    3.3671144878

- q-position: [    0.0300000,    0.0150000,    0.0450000 ]
  distance:    0.0103911
  band:
  - # 1
    frequency:    0.2042609994
  - # 2
    frequency:    0.2256712312
  - # 3
    frequency:    0.3374110993
  - # 4
    frequency:    1.3784203658
  - # 5
    frequency:    1.3870525679
  - # 6
    frequency:    3.3698904411

- q-position: [    0.0350000,    0.0175000,    0.0525000 ]
  distance:    0.0121230
  band:
  - # 1
    frequency:    0.2364541743
  - # 2
    frequency:    0.2612330214
  - # 3
    frequency:    0.3929587794
  - # 4
    frequency:    1.4017826411
  - # 5
    frequency:    1.4134377139
  - # 6
    frequency:    3.3730706433

- q-position: [    0.0400000,    0.0200000,    0.0600000 ]
  distance:    0.0138549
  band:
  - # 1
    frequency:    0.2678736539
  - # 2
    frequency:    0.2959756012
  - # 3
    frequency:    0.4481999085
  - # 4
    frequency:    1.4278728779
  - # 5
    frequency:    1.4429538524
  - # 6
    frequency:    3.3766068837

- q-position: [    0.0450000,    0.0225000,    0.0675000 ]
  distance:    0.0155867
  band:
  - # 1
    frequency:    0.2984582409
  - # 2
    frequency:    0.3298569933
  - # 3
    frequency:    0.5030988111
  - # 4
    frequency:    1.4563773507
  - # 5
    frequency:    1.4752623151
  - # 6
    frequency:    3.3804450386

- q-position: [    0.0500000,    0.0250000,    0.0750000 ]
  distance:    0.0173186
  band:
  - # 1
    frequency:    0.3281586075
  - # 2
    frequency:    0.3628519895
  - # 3
    frequency:    0.5576221091
  - # 4
    frequency:    1.4869722068
  - # 5
    frequency:    1.5100130566
  - # 6
    frequency:    3.3845256653

- q-position: [    0.0550000,    0.0275000,    0.0825000 ]
  distance:    0.0190504
  band:
  - # 1
    frequency:    0.3569358829
  - # 2
    frequency:    0.3949492921
  - # 3
    frequency:    0.6117386888
  - # 4
    frequency:    1.5193306482
  - # 5
    frequency:    1.5468528775
  - # 6
    frequency:    3.3887846437

- q-position: [    0.0600000,    0.0300000,    0.0900000 ]
  distance:    0.0207823
  band:
  - # 1
    frequency:    0.3847601430
  - # 2
    frequency:    0.4261485492
  - # 3
    frequency:    0.6654196149
  - # 4
    frequency:    1.5531291308
  - # 5
    frequency:    1.5854326270
  - # 6
    frequency:    3.3931538572

- q-position: [    0.0650000,    0.0325000,    0.0975000 ]
  distance:    0.0225141
  band:
  - # 1
    frequency:    0.4116089768
  - # 2
    frequency:    0.4564575983
  - # 3
    frequency:    0.7186380039
  - # 4
    frequency:    1.5880524815
  - # 5
    frequency:    1.6254131895
  - # 6
    frequency:    3.3975619021

- q-position: [    0.0700000,    0.0350000,    0.1050000 ]
  distance:    0.0242460
  band:
  - # 1
    frequency:    0.4374662465
  - # 2
    frequency:    0.4858901163
  - # 3
    frequency:    0.7713688677
  - # 4
    frequency:    1.6237979261
  - # 5
    frequency:    1.6664701938
  - # 6
    frequency:    3.4019348169

- q-position: [    0.0750000,    0.0375000,    0.1125000 ]
  distance:    0.0259779
  band:
  - # 1
    frequency:    0.4623210988
  - # 2
    frequency:    0.5144637719
  - # 3
    frequency:    0.8235889265
  - # 4
    frequency:    1.6600780990
  - # 5
    frequency:    1.7082974927
  - # 6
    frequency:    3.4061968231

- q-position: [    0.0800000,    0.0400000,    0.1200000 ]
  distance:    0.0277097
  band:
  - # 1
    frequency:    0.4861672430
  - # 2
    frequency:    0.5421988943
  - # 3
    frequency:    0.8752763953
  - # 4
    frequency:    1.6966231528
  - # 5
    frequency:    1.7506095399
  - # 6
    frequency:    3.4102710678

- q-position: [    0.0850000,    0.0425000,    0.1275000 ]
  distance:    0.0294416
  band:
  - # 1
    frequency:    0.5090024773
  - # 2
    frequency:    0.5691176125
  - # 3
    frequency:    0.9264107411
  - # 4
    frequency:    1.7331821080
  - # 5
    frequency:    1.7931428331
  - # 6
    frequency:    3.4140803619

- q-position: [    0.0900000,    0.0450000,    0.1350000 ]
  distance:    0.0311734
  band:
  - # 1
    frequency:    0.5308284274
  - # 2
    frequency:    0.5952433885
  - # 3
    frequency:    0.9769724116
  - # 4
    frequency:    1.7695235905
  - # 5
    frequency:    1.8356566063
  - # 6
    frequency:    3.4175479066

- q-position: [    0.0950000,    0.0475000,    0.1425000 ]
  distance:    0.0329053
  band:
  - # 1
    frequency:    0.5516504517
  - # 2
    frequency:    0.6206008547
  - # 3
    frequency:    1.0269425340
  - # 4
    frequency:    1.8054360933
  - # 5
    frequency:    1.8779329474
  - # 6
    frequency:    3.4205980022

- q-position: [    0.1000000,    0.0500000,    0.1500000 ]
  distance:    0.0346371
  band:
  - # 1
    frequency:    0.5714776680
  - # 2
    frequency:    0.6452158663
  - # 3
    frequency:    1.0763025866
  - # 4
    frequency:    1.8407278840
  - # 5
    frequency:    1.9197764972
  - # 6
    frequency:    3.4231567354

- q-position: [    0.1050000,    0.0525000,    0.1575000 ]
  distance:    0.0363690
  band:
  - # 1
    frequency:    0.5903230562
  - # 2
    frequency:    0.6691156904
  - # 3
    frequency:    1.1250340425
  - # 4
    frequency:    1.8752266592
  - # 5
    frequency:    1.9610138585
  - # 6
    frequency:    3.4251526401

- q-position: [    0.1100000,    0.0550000,    0.1650000 ]
  distance:    0.0381009
  band:
  - # 1
    frequency:    0.6082036015
  - # 2
    frequency:    0.6923292629
  - # 3
    frequency:    1.1731179893
  - # 4
    frequency:    1.9087790276
  - # 5
    frequency:    2.0014928182
  - # 6
    frequency:    3.4265173291

- q-position: [    0.1150000,    0.0575000,    0.1725000 ]
  distance:    0.0398327
  band:
  - # 1
    frequency:    0.6251404463
  - # 2
    frequency:    0.7148874606
  - # 3
    frequency:    1.2205347276
  - # 4
    frequency:    1.9412498823
  - # 5
    frequency:    2.0410814587
  - # 6
    frequency:    3.4271860954

- q-position: [    0.1200000,    0.0600000,    0.1800000 ]
  distance:    0.0415646
  band:
  - # 1
    frequency:    0.6411590243
  - # 2
    frequency:    0.7368233469
  - # 3
    frequency:    1.2672633513
  - # 4
    frequency:    1.9725217097
  - # 5
    frequency:    2.0796672142
  - # 6
    frequency:    3.4270984814

- q-position: [    0.1250000,    0.0625000,    0.1875000 ]
  distance:    0.0432964
  band:
  - # 1
    frequency:    0.6562891592
  - # 2
    frequency:    0.7581723600
  - # 3
    frequency:    1.3132813146
  - # 4
    frequency:    2.0024938666
  - # 5
    frequency:    2.1171559085
  - # 6
    frequency:    3.4261988156

- q-position: [    0.1300000,    0.0650000,    0.1950000 ]
  distance:    0.0450283
  band:
  - # 1
    frequency:    0.6705651107
  - # 2
    frequency:    0.7789724216
  - # 3
    frequency:    1.3585639897
  - # 4
    frequency:    2.0310818481
  - # 5
    frequency:    2.1534707987
  - # 6
    frequency:    3.4244367174

- q-position: [    0.1350000,    0.0675000,    0.2025000 ]
  distance:    0.0467601
  band:
  - # 1
    frequency:    0.6840255569
  - # 2
    frequency:    0.7992639513
  - # 3
    frequency:    1.4030842195
  - # 4
    frequency:    2.0582165590
  - # 5
    frequency:    2.1885516370
  - # 6
    frequency:    3.4217675711

- q-position: [    0.1400000,    0.0700000,    0.2100000 ]
  distance:    0.0484920
  band:
  - # 1
    frequency:    0.6967135039
  - # 2
    frequency:    0.8190897773
  - # 3
    frequency:    1.4468118716
  - # 4
    frequency:    2.0838435961
  - # 5
    frequency:    2.2223537565
  - # 6
    frequency:    3.4181529705

- q-position: [    0.1450000,    0.0725000,    0.2175000 ]
  distance:    0.0502239
  band:
  - # 1
    frequency:    0.7086761160
  - # 2
    frequency:    0.8384949386
  - # 3
    frequency:    1.4897133972
  - # 4
    frequency:    2.1079225460
  - # 5
    frequency:    2.2548471809
  - # 6
    frequency:    3.4135611351

- q-position: [    0.1500000,    0.0750000,    0.2250000 ]
  distance:    0.0519557
  band:
  - # 1
    frequency:    0.7199644612
  - # 2
    frequency:    0.8575263786
  - # 3
    frequency:    1.5317514031
  - # 4
    frequency:    2.1304262966
  - # 5
    frequency:    2.2860157529
  - # 6
    frequency:    3.4079673015

- q-position: [    0.1550000,    0.0775000,    0.2325000 ]
  distance:    0.0536876
  band:
  - # 1
    frequency:    0.7306331700
  - # 2
    frequency:    0.8762325316
  - # 3
    frequency:    1.5728842426
  - # 4
    frequency:    2.1513403613
  - # 5
    frequency:    2.3158562743
  - # 6
    frequency:    3.4013540909

- q-position: [    0.1600000,    0.0800000,    0.2400000 ]
  distance:    0.0554194
  band:
  - # 1
    frequency:    0.7407400041
  - # 2
    frequency:    0.8946628099
  - # 3
    frequency:    1.6130656342
  - # 4
    frequency:    2.1706622127
  - # 5
    frequency:    2.3443776480
  - # 6
    frequency:    3.3937118556

- q-position: [    0.1650000,    0.0825000,    0.2475000 ]
  distance:    0.0571513
  band:
  - # 1
    frequency:    0.7503453379
  - # 2
    frequency:    0.9128669979
  - # 3
    frequency:    1.6522443206
  - # 4
    frequency:    2.1884006212
  - # 5
    frequency:    2.3716000087
  - # 6
    frequency:    3.3850390055

- q-position: [    0.1700000,    0.0850000,    0.2550000 ]
  distance:    0.0588831
  band:
  - # 1
    frequency:    0.7595115538
  - # 2
    frequency:    0.9308945667
  - # 3
    frequency:    1.6903637791
  - # 4
    frequency:    2.2045749947
  - # 5
    frequency:    2.3975538274
  - # 6
    frequency:    3.3753423175

- q-position: [    0.1750000,    0.0875000,    0.2625000 ]
  distance:    0.0606150
  band:
  - # 1
    frequency:    0.7683023572
  - # 2
    frequency:    0.9487939205
  - # 3
    frequency:    1.7273620030
  - # 4
    frequency:    2.2192147154
  - # 5
    frequency:    2.4222789738
  - # 6
    frequency:    3.3646372261

- q-position: [    0.1800000,    0.0900000,    0.2700000 ]
  distance:    0.0623469
  band:
  - # 1
    frequency:    0.7767820175
  - # 2
    frequency:    0.9666115942
  - # 3
    frequency:    1.7631713745
  - # 4
    frequency:    2.2323584695
  - # 5
    frequency:    2.4458237147
  - # 6
    frequency:    3.3529480965

- q-position: [    0.1850000,    0.0925000,    0.2775000 ]
  distance:    0.0640787
  band:
  - # 1
    frequency:    0.7850145481
  - # 2
    frequency:    0.9843914155
  - # 3
    frequency:    1.7977186551
  - # 4
    frequency:    2.2440535653
  - # 5
    frequency:    2.4682436277
  - # 6
    frequency:    3.3403084763

- q-position: [    0.1900000,    0.0950000,    0.2850000 ]
  distance:    0.0658106
  band:
  - # 1
    frequency:    0.7930628363
  - # 2
    frequency:    1.0021736549
  - # 3
    frequency:    1.8309251263
  - # 4
    frequency:    2.2543552384
  - # 5
    frequency:    2.4896004064
  - # 6
    frequency:    3.3267613210

- q-position: [    0.1950000,    0.0975000,    0.2925000 ]
  distance:    0.0675424
  band:
  - # 1
    frequency:    0.8009877421
  - # 2
    frequency:    1.0199941788
  - # 3
    frequency:    1.8627069137
  - # 4
    frequency:    2.2633259400
  - # 5
    frequency:    2.5099605325
  - # 6
    frequency:    3.3123591849

- q-position: [    0.2000000,    0.1000000,    0.3000000 ]
  distance:    0.0692743
  band:
  - # 1
    frequency:    0.8088471837
  - # 2
    frequency:    1.0378836289
  - # 3
    frequency:    1.8929755357
  - # 4
    frequency:    2.2710346069
  - # 5
    frequency:    2.5293937933
  - # 6
    frequency:    3.2971643644

- q-position: [    0.2050000,    0.1025000,    0.3075000 ]
  distance:    0.0710061
  band:
  - # 1
    frequency:    0.8166952331
  - # 2
    frequency:    1.0558666427
  - # 3
    frequency:    1.9216387128
  - # 4
    frequency:    2.2775559125
  - # 5
    frequency:    2.5479716315
  - # 6
    frequency:    3.2812489744

- q-position: [    0.2100000,    0.1050000,    0.3150000 ]
  distance:    0.0727380
  band:
  - # 1
    frequency:    0.8245812436
  - # 2
    frequency:    1.0739611349
  - # 3
    frequency:    1.9486014731
  - # 4
    frequency:    2.2829694977
  - # 5
    frequency:    2.5657653235
  - # 6
    frequency:    3.2646949332

- q-position: [    0.2150000,    0.1075000,    0.3225000 ]
  distance:    0.0744699
  band:
  - # 1
    frequency:    0.8325490352
  - # 2
    frequency:    1.0921776506
  - # 3
    frequency:    1.9737675770
  - # 4
    frequency:    2.2873591836
  - # 5
    frequency:    2.5828440031
  - # 6
    frequency:    3.2475938209

- q-position: [    0.2200000,    0.1100000,    0.3300000 ]
  distance:    0.0762017
  band:
  - # 1
    frequency:    0.8406361613
  - # 2
    frequency:    1.1105188031
  - # 3
    frequency:    1.9970412712
  - # 4
    frequency:    2.2908121660
  - # 5
    frequency:    2.5992725747
  - # 6
    frequency:    3.2300465678

- q-position: [    0.2250000,    0.1125000,    0.3375000 ]
  distance:    0.0779336
  band:
  - # 1
    frequency:    0.8488732784
  - # 2
    frequency:    1.1289788024
  - # 3
    frequency:    2.0183293596
  - # 4
    frequency:    2.2934181948
  - # 5
    frequency:    2.6151095894
  - # 6
    frequency:    3.2121629195

- q-position: [    0.2300000,    0.1150000,    0.3450000 ]
  distance:    0.0796654
  band:
  - # 1
    frequency:    0.8572836407
  - # 2
    frequency:    1.1475430753
  - # 3
    frequency:    2.0375435556
  - # 4
    frequency:    2.2952687426
  - # 5
    frequency:    2.6304051911
  - # 6
    frequency:    3.1940606179

- q-position: [    0.2350000,    0.1175000,    0.3525000 ]
  distance:    0.0813973
  band:
  - # 1
    frequency:    0.8658827332
  - # 2
    frequency:    1.1661879772
  - # 3
    frequency:    2.0546030609
  - # 4
    frequency:    2.2964561652
  - # 5
    frequency:    2.6451992691
  - # 6
    frequency:    3.1758642269

- q-position: [    0.2400000,    0.1200000,    0.3600000 ]
  distance:    0.0831292
  band:
  - # 1
    frequency:    0.8746780576
  - # 2
    frequency:    1.1848805859
  - # 3
    frequency:    2.0694373004
  - # 4
    frequency:    2.2970728611
  - # 5
    frequency:    2.6595199673
  - # 6
    frequency:    3.1577035394

- q-position: [    0.2450000,    0.1225000,    0.3675000 ]
  distance:    0.0848610
  band:
  - # 1
    frequency:    0.8836690743
  - # 2
    frequency:    1.2035785672
  - # 3
    frequency:    2.0819887356
  - # 4
    frequency:    2.2972104352
  - # 5
    frequency:    2.6733826970
  - # 6
    frequency:    3.1397115040

- q-position: [    0.2500000,    0.1250000,    0.3750000 ]
  distance:    0.0865929
  band:
  - # 1
    frequency:    0.8928473045
  - # 2
    frequency:    1.2222300970
  - # 3
    frequency:    2.0922156909
  - # 4
    frequency:    2.2969588747
  - # 5
    frequency:    2.6867897705
  - # 6
    frequency:    3.1220216402

- q-position: [    0.2550000,    0.1275000,    0.3825000 ]
  distance:    0.0883247
  band:
  - # 1
    frequency:    0.9021965851
  - # 2
    frequency:    1.2407738187
  - # 3
    frequency:    2.1000951329
  - # 4
    frequency:    2.2964057455
  - # 5
    frequency:    2.6997307177
  - # 6
    frequency:    3.1047649513

- q-position: [    0.2600000,    0.1300000,    0.3900000 ]
  distance:    0.0900566
  band:
  - # 1
    frequency:    0.9116934685
  - # 2
    frequency:    1.2591388162
  - # 3
    frequency:    2.1056253578
  - # 4
    frequency:    2.2956354165
  - # 5
    frequency:    2.7121832792
  - # 6
    frequency:    3.0880664021

- q-position: [    0.2650000,    0.1325000,    0.3975000 ]
  distance:    0.0917884
  band:
  - # 1
    frequency:    0.9213077538
  - # 2
    frequency:    1.2772445788
  - # 3
    frequency:    2.1088285396
  - # 4
    frequency:    2.2947283232
  - # 5
    frequency:    2.7241149866
  - # 6
    frequency:    3.0720411140

- q-position: [    0.2700000,    0.1350000,    0.4050000 ]
  distance:    0.0935203
  band:
  - # 1
    frequency:    0.9310031316
  - # 2
    frequency:    1.2950009371
  - # 3
    frequency:    2.1097530750
  - # 4
    frequency:    2.2937602787
  - # 5
    frequency:    2.7354851678
  - # 6
    frequency:    3.0567905118

- q-position: [    0.2750000,    0.1375000,    0.4125000 ]
  distance:    0.0952522
  band:
  - # 1
    frequency:    0.9407379236
  - # 2
    frequency:    1.3123079523
  - # 3
    frequency:    2.1084756300
  - # 4
    frequency:    2.2928018416
  - # 5
    frequency:    2.7462471577
  - # 6
    frequency:    3.0423987454

- q-position: [    0.2800000,    0.1400000,    0.4200000 ]
  distance:    0.0969840
  band:
  - # 1
    frequency:    0.9504658967
  - # 2
    frequency:    1.3290557526
  - # 3
    frequency:    2.1051027615
  - # 4
    frequency:    2.2919177513
  - # 5
    frequency:    2.7563504484
  - # 6
    frequency:    3.0289297708

- q-position: [    0.2850000,    0.1425000,    0.4275000 ]
  distance:    0.0987159
  band:
  - # 1
    frequency:    0.9601371316
  - # 2
    frequency:    1.3451243271
  - # 3
    frequency:    2.0997719605
  - # 4
    frequency:    2.2911664390
  - # 5
    frequency:    2.7657425015
  - # 6
    frequency:    3.0164255006

- q-position: [    0.2900000,    0.1450000,    0.4350000 ]
  distance:    0.1004477
  band:
  - # 1
    frequency:    0.9696989236
  - # 2
    frequency:    1.3603833126
  - # 3
    frequency:    2.0926519658
  - # 4
    frequency:    2.2905996218
  - # 5
    frequency:    2.7743699440
  - # 6
    frequency:    3.0049054028

- q-position: [    0.2950000,    0.1475000,    0.4425000 ]
  distance:    0.1021796
  band:
  - # 1
    frequency:    0.9790966991
  - # 2
    frequency:    1.3746918566
  - # 3
    frequency:    2.0839422111
  - # 4
    frequency:    2.2902619884
  - # 5
    frequency:    2.7821789054
  - # 6
    frequency:    2.9943678313

- q-position: [    0.3000000,    0.1500000,    0.4500000 ]
  distance:    0.1039114
  band:
  - # 1
    frequency:    0.9882749284
  - # 2
    frequency:    1.3878986966
  - # 3
    frequency:    2.0738712940
  - # 4
    frequency:    2.2901909798
  - # 5
    frequency:    2.7891143289
  - # 6
    frequency:    2.9847932139

- q-position: [    0.3050000,    0.1525000,    0.4575000 ]
  distance:    0.1056433
  band:
  - # 1
    frequency:    0.9971780207
  - # 2
    frequency:    1.3998426813
  - # 3
    frequency:    2.0626943632
  - # 4
    frequency:    2.2904166716
  - # 5
    frequency:    2.7951182314
  - # 6
    frequency:    2.9761489869

- q-position: [    0.3100000,    0.1550000,    0.4650000 ]
  distance:    0.1073752
  band:
  - # 1
    frequency:    1.0057511872
  - # 2
    frequency:    1.4103540592
  - # 3
    frequency:    2.0506892903
  - # 4
    frequency:    2.2909617567
  - # 5
    frequency:    2.8001271286
  - # 6
    frequency:    2.9683958552

- q-position: [    0.3150000,    0.1575000,    0.4725000 ]
  distance:    0.1091070
  band:
  - # 1
    frequency:    1.0139412613
  - # 2
    frequency:    1.4192569640
  - # 3
    frequency:    2.0381514282
  - # 4
    frequency:    2.2918416310
  - # 5
    frequency:    2.8040691976
  - # 6
    frequency:    2.9614945600

- q-position: [    0.3200000,    0.1600000,    0.4800000 ]
  distance:    0.1108389
  band:
  - # 1
    frequency:    1.0216974674
  - # 2
    frequency:    1.4263735941
  - # 3
    frequency:    2.0253866862
  - # 4
    frequency:    2.2930645785
  - # 5
    frequency:    2.8068622027
  - # 6
    frequency:    2.9554118887

- q-position: [    0.3250000,    0.1625000,    0.4875000 ]
  distance:    0.1125707
  band:
  - # 1
    frequency:    1.0289721308
  - # 2
    frequency:    1.4315305568
  - # 3
    frequency:    2.0127026467
  - # 4
    frequency:    2.2946320518
  - # 5
    frequency:    2.8084136233
  - # 6
    frequency:    2.9501242795

- q-position: [    0.3300000,    0.1650000,    0.4950000 ]
  distance:    0.1143026
  band:
  - # 1
    frequency:    1.0357213242
  - # 2
    frequency:    1.4345676334
  - # 3
    frequency:    2.0003975995
  - # 4
    frequency:    2.2965390406
  - # 5
    frequency:    2.8086244953
  - # 6
    frequency:    2.9456173610

- q-position: [    0.3350000,    0.1675000,    0.5025000 ]
  distance:    0.1160344
  band:
  - # 1
    frequency:    1.0419054466
  - # 2
    frequency:    1.4353487608
  - # 3
    frequency:    1.9887477772
  - # 4
    frequency:    2.2987745216
  - # 5
    frequency:    2.8073977536
  - # 6
    frequency:    2.9418805511

- q-position: [    0.3400000,    0.1700000,    0.5100000 ]
  distance:    0.1177663
  band:
  - # 1
    frequency:    1.0474897346
  - # 2
    frequency:    1.4337743020
  - # 3
    frequency:    1.9779937316
  - # 4
    frequency:    2.3013219774
  - # 5
    frequency:    2.8046501220
  - # 6
    frequency:    2.9388976406

- q-position: [    0.3450000,    0.1725000,    0.5175000 ]
  distance:    0.1194982
  band:
  - # 1
    frequency:    1.0524447033
  - # 2
    frequency:    1.4297928820
  - # 3
    frequency:    1.9683275499
  - # 4
    frequency:    2.3041599736
  - # 5
    frequency:    2.8003244101
  - # 6
    frequency:    2.9366365112

- q-position: [    0.3500000,    0.1750000,    0.5250000 ]
  distance:    0.1212300
  band:
  - # 1
    frequency:    1.0567465202
  - # 2
    frequency:    1.4234105200
  - # 3
    frequency:    1.9598831265
  - # 4
    frequency:    2.3072627820
  - # 5
    frequency:    2.7943980144
  - # 6
    frequency:    2.9350422378

- q-position: [    0.3550000,    0.1775000,    0.5325000 ]
  distance:    0.1229619
  band:
  - # 1
    frequency:    1.0603773109
  - # 2
    frequency:    1.4146948839
  - # 3
    frequency:    1.9527315905
  - # 4
    frequency:    2.3106010348
  - # 5
    frequency:    2.7868847593
  - # 6
    frequency:    2.9340364893

- q-position: [    0.3600000,    0.1800000,    0.5400000 ]
  distance:    0.1246937
  band:
  - # 1
    frequency:    1.0633253997
  - # 2
    frequency:    1.4037734043
  - # 3
    frequency:    1.9468830817
  - # 4
    frequency:    2.3141423974
  - # 5
    frequency:    2.7778303397
  - # 6
    frequency:    2.9335230307

- q-position: [    0.3650000,    0.1825000,    0.5475000 ]
  distance:    0.1264256
  band:
  - # 1
    frequency:    1.0655854885
  - # 2
    frequency:    1.3908254503
  - # 3
    frequency:    1.9422946026
  - # 4
    frequency:    2.3178522455
  - # 5
    frequency:    2.7673042328
  - # 6
    frequency:    2.9333965117

- q-position: [    0.3700000,    0.1850000,    0.5550000 ]
  distance:    0.1281574
  band:
  - # 1
    frequency:    1.0671587734
  - # 2
    frequency:    1.3760701865
  - # 3
    frequency:    1.9388822615
  - # 4
    frequency:    2.3216943340
  - # 5
    frequency:    2.7553914443
  - # 6
    frequency:    2.9335512261

- q-position: [    0.3750000,    0.1875000,    0.5625000 ]
  distance:    0.1298893
  band:
  - # 1
    frequency:    1.0680530028
  - # 2
    frequency:    1.3597525243
  - # 3
    frequency:    1.9365354430
  - # 4
    frequency:    2.3256314449
  - # 5
    frequency:    2.7421862162
  - # 6
    frequency:    2.9338877536

- q-position: [    0.3800000,    0.1900000,    0.5700000 ]
  distance:    0.1316212
  band:
  - # 1
    frequency:    1.0682824783
  - # 2
    frequency:    1.3421295246
  - # 3
    frequency:    1.9351305011
  - # 4
    frequency:    2.3296260045
  - # 5
    frequency:    2.7277882597
  - # 6
    frequency:    2.9343169508

- q-position: [    0.3850000,    0.1925000,    0.5775000 ]
  distance:    0.1333530
  band:
  - # 1
    frequency:    1.0678679973
  - # 2
    frequency:    1.3234589292
  - # 3
    frequency:    1.9345422619
  - # 4
    frequency:    2.3336406595
  - # 5
    frequency:    2.7123010866
  - # 6
    frequency:    2.9347617404

- q-position: [    0.3900000,    0.1950000,    0.5850000 ]
  distance:    0.1350849
  band:
  - # 1
    frequency:    1.0668367392
  - # 2
    frequency:    1.3039906055
  - # 3
    frequency:    1.9346525162
  - # 4
    frequency:    2.3376388055
  - # 5
    frequency:    2.6958317035
  - # 6
    frequency:    2.9351574525

- q-position: [    0.3950000,    0.1975000,    0.5925000 ]
  distance:    0.1368167
  band:
  - # 1
    frequency:    1.0652220926
  - # 2
    frequency:    1.2839609388
  - # 3
    frequency:    1.9353554423
  - # 4
    frequency:    2.3415850601
  - # 5
    frequency:    2.6784910204
  - # 6
    frequency:    2.9354513771

- q-position: [    0.4000000,    0.2000000,    0.6000000 ]
  distance:    0.1385486
  band:
  - # 1
    frequency:    1.0630634222
  - # 2
    frequency:    1.2635897399
  - # 3
    frequency:    1.9365603652
  - # 4
    frequency:    2.3454456789
  - # 5
    frequency:    2.6603945356
  - # 6
    frequency:    2.9356019783

- q-position: [    0.4050000,    0.2025000,    0.6075000 ]
  distance:    0.1402804
  band:
  - # 1
    frequency:    1.0604057725
  - # 2
    frequency:    1.2430790567
  - # 3
    frequency:    1.9381924398
  - # 4
    frequency:    2.3491889092
  - # 5
    frequency:    2.6416630507
  - # 6
    frequency:    2.9355780248

- q-position: [    0.4100000,    0.2050000,    0.6150000 ]
  distance:    0.1420123
  band:
  - # 1
    frequency:    1.0572995057
  - # 2
    frequency:    1.2226132828
  - # 3
    frequency:    1.9401918432
  - # 4
    frequency:    2.3527852825
  - # 5
    frequency:    2.6224233046
  - # 6
    frequency:    2.9353577592

- q-position: [    0.4150000,    0.2075000,    0.6225000 ]
  distance:    0.1437442
  band:
  - # 1
    frequency:    1.0537998693
  - # 2
    frequency:    1.2023600584
  - # 3
    frequency:    1.9425119589
  - # 4
    frequency:    2.3562078439
  - # 5
    frequency:    2.6028084928
  - # 6
    frequency:    2.9349281494

- q-position: [    0.4200000,    0.2100000,    0.6300000 ]
  distance:    0.1454760
  band:
  - # 1
    frequency:    1.0499664913
  - # 2
    frequency:    1.1824715886
  - # 3
    frequency:    1.9451169091
  - # 4
    frequency:    2.3594323218
  - # 5
    frequency:    2.5829586817
  - # 6
    frequency:    2.9342842263

- q-position: [    0.4250000,    0.2125000,    0.6375000 ]
  distance:    0.1472079
  band:
  - # 1
    frequency:    1.0458627986
  - # 2
    frequency:    1.1630861187
  - # 3
    frequency:    1.9479786759
  - # 4
    frequency:    2.3624372402
  - # 5
    frequency:    2.5630211441
  - # 6
    frequency:    2.9334284931

- q-position: [    0.4300000,    0.2150000,    0.6450000 ]
  distance:    0.1489397
  band:
  - # 1
    frequency:    1.0415553584
  - # 2
    frequency:    1.1443294048
  - # 3
    frequency:    1.9510739669
  - # 4
    frequency:    2.3652039750
  - # 5
    frequency:    2.5431506463
  - # 6
    frequency:    2.9323703891

- q-position: [    0.4350000,    0.2175000,    0.6525000 ]
  distance:    0.1506716
  band:
  - # 1
    frequency:    1.0371131403
  - # 2
    frequency:    1.1263160821
  - # 3
    frequency:    1.9543809215
  - # 4
    frequency:    2.3677167616
  - # 5
    frequency:    2.5235097106
  - # 6
    frequency:    2.9311257870

- q-position: [    0.4400000,    0.2200000,    0.6600000 ]
  distance:    0.1524034
  band:
  - # 1
    frequency:    1.0326067025
  - # 2
    frequency:    1.1091508800
  - # 3
    frequency:    1.9578757303
  - # 4
    frequency:    2.3699626562
  - # 5
    frequency:    2.5042688604
  - # 6
    frequency:    2.9297165088

- q-position: [    0.4450000,    0.2225000,    0.6675000 ]
  distance:    0.1541353
  band:
  - # 1
    frequency:    1.0281073060
  - # 2
    frequency:    1.0929296641
  - # 3
    frequency:    1.9615292456
  - # 4
    frequency:    2.3719314558
  - # 5
    frequency:    2.4856068248
  - # 6
    frequency:    2.9281698487

- q-position: [    0.4500000,    0.2250000,    0.6750000 ]
  distance:    0.1558672
  band:
  - # 1
    frequency:    1.0236859631
  - # 2
    frequency:    1.0777403005
  - # 3
    frequency:    1.9653036938
  - # 4
    frequency:    2.3736155846
  - # 5
    frequency:    2.4677106317
  - # 6
    frequency:    2.9265180910

- q-position: [    0.4550000,    0.2275000,    0.6825000 ]
  distance:    0.1575990
  band:
  - # 1
    frequency:    1.0194124351
  - # 2
    frequency:    1.0636633491
  - # 3