14.400
  29.73290   0.00000   0.00000   0.00000  29.73290   0.00000   0.00000   0.00000  29.73290
   5.84892   0.00000   0.00000   0.00000   5.84892   0.00000   0.00000   0.00000   5.84891
  -5.84769   0.00000   0.00000   0.00000  -5.84769   0.00000   0.00000   0.00000  -5.84769
