128  
2    

1    
  0.0000000000000000   0.0070710678118655   0.0070710678118655
   0.0000000000   -0.0190730400   -0.0190730400
   0.0000000000    0.0028373100    0.0028373100
   0.0000000000    0.0005886500    0.0005886500
   0.0000000000    0.0028105700    0.0028105700
   0.0027610500   -0.0002015300    0.0000671200
   0.0001713700    0.0001336400    0.0003072500
  -0.0001714400    0.0003055700    0.0001347000
  -0.0027491300    0.0000703600   -0.0001995500
   0.0003826100   -0.0000546400    0.0002060700
  -0.0000008200   -0.0000374700   -0.0000370300
  -0.0003826100    0.0002060700   -0.0000546400
   0.0000008200   -0.0000370300   -0.0000374700
   0.0027491300   -0.0001995500    0.0000703600
  -0.0027610500    0.0000671200   -0.0002015300
  -0.0001713700    0.0003072500    0.0001336400
   0.0001714400    0.0001347000    0.0003055700
   0.0027610500    0.0000671200   -0.0002015300
   0.0001713700    0.0003072500    0.0001336400
  -0.0001714400    0.0001347000    0.0003055700
  -0.0027491300   -0.0001995500    0.0000703600
   0.0002352500    0.0000710300    0.0000710300
   0.0000001000    0.0000890900    0.0000890900
  -0.0002331600    0.0000716400    0.0000716400
  -0.0000098200    0.0003013600    0.0003013600
   0.0000622700   -0.0001003300    0.0000714700
  -0.0000633300    0.0000729000   -0.0000998100
  -0.0003756900    0.0002798300   -0.0000465200
   0.0003780300   -0.0000465300    0.0002781300
   0.0000000000   -0.0026841100   -0.0026886500
   0.0000000000    0.0041951300    0.0003049000
   0.0000000000    0.0006569500    0.0006546800
   0.0000000000    0.0002978700    0.0042035600
   0.0003826100    0.0002060700   -0.0000546400
  -0.0000008200   -0.0000370300   -0.0000374700
  -0.0003826100   -0.0000546400    0.0002060700
   0.0000008200   -0.0000374700   -0.0000370300
   0.0000622700    0.0000714700   -0.0001003300
  -0.0000633300   -0.0000998100    0.0000729000
  -0.0003756900   -0.0000465200    0.0002798300
   0.0003780300    0.0002781300   -0.0000465300
   0.0000000000   -0.0001765700   -0.0001765700
   0.0000000000   -0.0000958700   -0.0000958700
   0.0000000000    0.0010752200    0.0010752200
   0.0000000000   -0.0000998900   -0.0000998900
   0.0000633300    0.0000729000   -0.0000998100
   0.0003756900    0.0002798300   -0.0000465200
  -0.0003780300   -0.0000465300    0.0002781300
  -0.0000622700   -0.0001003300    0.0000714700
   0.0027491300    0.0000703600   -0.0001995500
  -0.0027610500   -0.0002015300    0.0000671200
  -0.0001713700    0.0001336400    0.0003072500
   0.0001714400    0.0003055700    0.0001347000
   0.0000000000   -0.0026886500   -0.0026841100
   0.0000000000    0.0003049000    0.0041951300
   0.0000000000    0.0006546800    0.0006569500
   0.0000000000    0.0042035600    0.0002978700
   0.0000633300   -0.0000998100    0.0000729000
   0.0003756900   -0.0000465200    0.0002798300
  -0.0003780300    0.0002781300   -0.0000465300
  -0.0000622700    0.0000714700   -0.0001003300
   0.0002331600    0.0000716400    0.0000716400
   0.0000098200    0.0003013600    0.0003013600
  -0.0002352500    0.0000710300    0.0000710300
  -0.0000001000    0.0000890900    0.0000890900
  -0.0003997900   -0.0002115400   -0.0002115400
  -0.0000000300   -0.0001796600   -0.0001796600
   0.0003967000   -0.0002100100   -0.0002100100
  -0.0000149100    0.0006429500    0.0006429500
  -0.0000833100   -0.0000197000   -0.0000961500
   0.0000836300   -0.0000961700   -0.0000200700
   0.0006735600   -0.0001104900    0.0000119500
  -0.0006776100    0.0000119200   -0.0001090300
   0.0000012200    0.0001870400    0.0001879400
   0.0004420700   -0.0003357500    0.0000118500
  -0.0000006800   -0.0001555600   -0.0001546800
  -0.0004440500    0.0000120300   -0.0003380700
   0.0000000000    0.0059297800    0.0006363100
   0.0000000000   -0.0010141800   -0.0005524100
   0.0000000000   -0.0005532100   -0.0010107700
   0.0000000000    0.0006489400    0.0056147900
  -0.0000833100   -0.0000961500   -0.0000197000
   0.0000836300   -0.0000200700   -0.0000961700
   0.0006735600    0.0000119500   -0.0001104900
  -0.0006776100   -0.0001090300    0.0000119200
   0.0000000800   -0.0000126800   -0.0000126800
   0.0000920300   -0.0000633400   -0.0000633400
   0.0000029100   -0.0003195000   -0.0003195000
  -0.0000929900   -0.0000619000   -0.0000619000
   0.0000000000    0.0003362900    0.0003322300
   0.0000000000   -0.0018122900   -0.0003200700
   0.0000000000   -0.0003189100   -0.0018149500
   0.0000000000    0.0003343600    0.0003411100
  -0.0004420700   -0.0003357500    0.0000118500
   0.0000006800   -0.0001555600   -0.0001546800
   0.0004440500    0.0000120300   -0.0003380700
  -0.0000012200    0.0001870400    0.0001879400
   0.0000012200    0.0001879400    0.0001870400
   0.0004420700    0.0000118500   -0.0003357500
  -0.0000006800   -0.0001546800   -0.0001555600
  -0.0004440500   -0.0003380700    0.0000120300
   0.0000000000    0.0003322300    0.0003362900
   0.0000000000   -0.0003200700   -0.0018122900
   0.0000000000   -0.0018149500   -0.0003189100
   0.0000000000    0.0003411100    0.0003343600
  -0.0000920300   -0.0000633400   -0.0000633400
  -0.0000029100   -0.0003195000   -0.0003195000
   0.0000929900   -0.0000619000   -0.0000619000
  -0.0000000800   -0.0000126800   -0.0000126800
  -0.0006735600   -0.0001104900    0.0000119500
   0.0006776100    0.0000119200   -0.0001090300
   0.0000833100   -0.0000197000   -0.0000961500
  -0.0000836300   -0.0000961700   -0.0000200700
   0.0000000000    0.0006363100    0.0059297800
   0.0000000000   -0.0005524100   -0.0010141800
   0.0000000000   -0.0010107700   -0.0005532100
   0.0000000000    0.0056147900    0.0006489400
  -0.0004420700    0.0000118500   -0.0003357500
   0.0000006800   -0.0001546800   -0.0001555600
   0.0004440500   -0.0003380700    0.0000120300
  -0.0000012200    0.0001879400    0.0001870400
  -0.0006735600    0.0000119500   -0.0001104900
   0.0006776100   -0.0001090300    0.0000119200
   0.0000833100   -0.0000961500   -0.0000197000
  -0.0000836300   -0.0000200700   -0.0000961700
   0.0000149100    0.0006429500    0.0006429500
   0.0003997900   -0.0002115400   -0.0002115400
   0.0000000300   -0.0001796600   -0.0001796600
  -0.0003967000   -0.0002100100   -0.0002100100

65   
  0.0000000000000000   0.0070710678118655   0.0070710678118655
  -0.0003973500   -0.0002117000   -0.0002117000
   0.0000042200    0.0006426700    0.0006426700
   0.0003993300   -0.0002098500   -0.0002098500
   0.0000006300   -0.0001792300   -0.0001792300
  -0.0000000000    0.0056177700    0.0006580300
  -0.0000000000    0.0006266100    0.0059264200
  -0.0000000000   -0.0007849300   -0.0007816200
  -0.0000000000   -0.0007773400   -0.0007844900
   0.0000008900    0.0001866200    0.0001885400
  -0.0006758800    0.0000115800   -0.0003360800
  -0.0000011900   -0.0001553000   -0.0001564300
   0.0006746800   -0.0003372400    0.0000117800
  -0.0000829700   -0.0000201100   -0.0000959700
  -0.0004425600    0.0000119500   -0.0001112200
   0.0004429700   -0.0001077000    0.0000114200
   0.0000836600   -0.0000961900   -0.0000196000
  -0.0000000000    0.0006580300    0.0056177700
  -0.0000000000    0.0059264200    0.0006266100
  -0.0000000000   -0.0007816200   -0.0007849300
  -0.0000000000   -0.0007844900   -0.0007773400
  -0.0000042200    0.0006426700    0.0006426700
  -0.0003993300   -0.0002098500   -0.0002098500
  -0.0000006300   -0.0001792300   -0.0001792300
   0.0003973500   -0.0002117000   -0.0002117000
  -0.0004429700    0.0000114200   -0.0001077000
  -0.0000836600   -0.0000196000   -0.0000961900
   0.0000829700   -0.0000959700   -0.0000201100
   0.0004425600   -0.0001112200    0.0000119500
  -0.0006746800    0.0000117800   -0.0003372400
  -0.0000008900    0.0001885400    0.0001866200
   0.0006758800   -0.0003360800    0.0000115800
   0.0000011900   -0.0001564300   -0.0001553000
   0.0000008900    0.0001885400    0.0001866200
  -0.0006758800   -0.0003360800    0.0000115800
  -0.0000011900   -0.0001564300   -0.0001553000
   0.0006746800    0.0000117800   -0.0003372400
  -0.0004429700   -0.0001077000    0.0000114200
  -0.0000836600   -0.0000961900   -0.0000196000
   0.0000829700   -0.0000201100   -0.0000959700
   0.0004425600    0.0000119500   -0.0001112200
  -0.0000926700   -0.0000629000   -0.0000629000
   0.0000000000   -0.0000128800   -0.0000128800
   0.0000934700   -0.0000628200   -0.0000628200
   0.0000050500   -0.0003196300   -0.0003196300
  -0.0000000000    0.0005646400    0.0001050300
  -0.0000000000    0.0001072500    0.0005672600
  -0.0000000000   -0.0018162000   -0.0003188400
  -0.0000000000   -0.0003209200   -0.0018085500
  -0.0000829700   -0.0000959700   -0.0000201100
  -0.0004425600   -0.0001112200    0.0000119500
   0.0004429700    0.0000114200   -0.0001077000
   0.0000836600   -0.0000196000   -0.0000961900
  -0.0006746800   -0.0003372400    0.0000117800
  -0.0000008900    0.0001866200    0.0001885400
   0.0006758800    0.0000115800   -0.0003360800
   0.0000011900   -0.0001553000   -0.0001564300
  -0.0000000000    0.0001050300    0.0005646400
  -0.0000000000    0.0005672600    0.0001072500
  -0.0000000000   -0.0003188400   -0.0018162000
  -0.0000000000   -0.0018085500   -0.0003209200
  -0.0000000000   -0.0000128800   -0.0000128800
  -0.0000934700   -0.0000628200   -0.0000628200
  -0.0000050500   -0.0003196300   -0.0003196300
   0.0000926700   -0.0000629000   -0.0000629000
  -0.0000000000   -0.0245653400   -0.0245653400
  -0.0000000000    0.0012547100    0.0012547100
  -0.0000000000    0.0003055000    0.0003055000
  -0.0000000000    0.0012269700    0.0012269700
   0.0009451800   -0.0000418700    0.0002984700
   0.0001262700    0.0001346500    0.0002198200
  -0.0001247100    0.0002195900    0.0001343700
  -0.0009406300    0.0002964200   -0.0000409800
   0.0002353800    0.0000180100    0.0000698700
   0.0000003600    0.0000088300    0.0000094600
  -0.0002353800    0.0000698700    0.0000180100
  -0.0000003600    0.0000094600    0.0000088300
   0.0009406300   -0.0000409800    0.0002964200
  -0.0009451800    0.0002984700   -0.0000418700
  -0.0001262700    0.0002198200    0.0001346500
   0.0001247100    0.0001343700    0.0002195900
   0.0009451800    0.0002984700   -0.0000418700
   0.0001262700    0.0002198200    0.0001346500
  -0.0001247100    0.0001343700    0.0002195900
  -0.0009406300   -0.0000409800    0.0002964200
   0.0001626200    0.0000975200    0.0000975200
  -0.0000000200    0.0000935900    0.0000935900
  -0.0001620900    0.0000972700    0.0000972700
  -0.0000146600    0.0002521800    0.0002521800
   0.0000371100   -0.0000281100    0.0000575900
  -0.0000375500    0.0000567000   -0.0000279200
  -0.0003262400    0.0005235200    0.0002235000
   0.0003252500    0.0002248300    0.0005219500
  -0.0000000000   -0.0006476100   -0.0006434100
  -0.0000000000    0.0044116500    0.0002543300
  -0.0000000000    0.0008501800    0.0008466400
  -0.0000000000    0.0002501400    0.0043962700
   0.0002353800    0.0000698700    0.0000180100
   0.0000003600    0.0000094600    0.0000088300
  -0.0002353800    0.0000180100    0.0000698700
  -0.0000003600    0.0000088300    0.0000094600
   0.0000371100    0.0000575900   -0.0000281100
  -0.0000375500   -0.0000279200    0.0000567000
  -0.0003262400    0.0002235000    0.0005235200
   0.0003252500    0.0005219500    0.0002248300
  -0.0000000000   -0.0001659100   -0.0001659100
  -0.0000000000    0.0001965800    0.0001965800
  -0.0000000000    0.0010734100    0.0010734100
  -0.0000000000    0.0001979100    0.0001979100
   0.0000375500    0.0000567000   -0.0000279200
   0.0003262400    0.0005235200    0.0002235000
  -0.0003252500    0.0002248300    0.0005219500
  -0.0000371100   -0.0000281100    0.0000575900
   0.0009406300    0.0002964200   -0.0000409800
  -0.0009451800   -0.0000418700    0.0002984700
  -0.0001262700    0.0001346500    0.0002198200
   0.0001247100    0.0002195900    0.0001343700
  -0.0000000000   -0.0006434100   -0.0006476100
  -0.0000000000    0.0002543300    0.0044116500
  -0.0000000000    0.0008466400    0.0008501800
  -0.0000000000    0.0043962700    0.0002501400
   0.0000375500   -0.0000279200    0.0000567000
   0.0003262400    0.0002235000    0.0005235200
  -0.0003252500    0.0005219500    0.0002248300
  -0.0000371100    0.0000575900   -0.0000281100
   0.0001620900    0.0000972700    0.0000972700
   0.0000146600    0.0002521800    0.0002521800
  -0.0001626200    0.0000975200    0.0000975200
   0.0000000200    0.0000935900    0.0000935900
