mesh: [    48,    48,    48 ]
nqpoint: 2769   
natom:   2      
phonon:
- q-position: [    0.0000000,    0.0000000,    0.0000000 ]
  weight: 1    
  band:
  - # 1
    frequency:    -0.0026883654
  - # 2
    frequency:    -0.0026883654
  - # 3
    frequency:    -0.0026883654
  - # 4
    frequency:     1.3097902032
  - # 5
    frequency:     1.3097902032
  - # 6
    frequency:     1.3097902032

- q-position: [    0.0208333,    0.0000000,    0.0000000 ]
  weight: 8    
  band:
  - # 1
    frequency:     0.1252985138
  - # 2
    frequency:     0.1252985138
  - # 3
    frequency:     0.1716616345
  - # 4
    frequency:     1.3329557431
  - # 5
    frequency:     1.3329557431
  - # 6
    frequency:     3.3622725209

- q-position: [    0.0416667,    0.0000000,    0.0000000 ]
  weight: 8    
  band:
  - # 1
    frequency:     0.2467020092
  - # 2
    frequency:     0.2467020092
  - # 3
    frequency:     0.3415587154
  - # 4
    frequency:     1.3996889430
  - # 5
    frequency:     1.3996889430
  - # 6
    frequency:     3.3675830429

- q-position: [    0.0625000,    0.0000000,    0.0000000 ]
  weight: 8    
  band:
  - # 1
    frequency:     0.3618005739
  - # 2
    frequency:     0.3618005739
  - # 3
    frequency:     0.5079360257
  - # 4
    frequency:     1.5025387958
  - # 5
    frequency:     1.5025387958
  - # 6
    frequency:     3.3764875296

- q-position: [    0.0833333,    0.0000000,    0.0000000 ]
  weight: 8    
  band:
  - # 1
    frequency:     0.4701521574
  - # 2
    frequency:     0.4701521574
  - # 3
    frequency:     0.6692384548
  - # 4
    frequency:     1.6314786644
  - # 5
    frequency:     1.6314786644
  - # 6
    frequency:     3.3890070008

- q-position: [    0.1041667,    0.0000000,    0.0000000 ]
  weight: 8    
  band:
  - # 1
    frequency:     0.5724538277
  - # 2
    frequency:     0.5724538277
  - # 3
    frequency:     0.8241355073
  - # 4
    frequency:     1.7762175107
  - # 5
    frequency:     1.7762175107
  - # 6
    frequency:     3.4050638871

- q-position: [    0.1250000,    0.0000000,    0.0000000 ]
  weight: 8    
  band:
  - # 1
    frequency:     0.6696696311
  - # 2
    frequency:     0.6696696311
  - # 3
    frequency:     0.9715896567
  - # 4
    frequency:     1.9277210810
  - # 5
    frequency:     1.9277210810
  - # 6
    frequency:     3.4244006404

- q-position: [    0.1458333,    0.0000000,    0.0000000 ]
  weight: 8    
  band:
  - # 1
    frequency:     0.7625786829
  - # 2
    frequency:     0.7625786829
  - # 3
    frequency:     1.1109108491
  - # 4
    frequency:     2.0787544695
  - # 5
    frequency:     2.0787544695
  - # 6
    frequency:     3.4465066824

- q-position: [    0.1666667,    0.0000000,    0.0000000 ]
  weight: 8    
  band:
  - # 1
    frequency:     0.8516867003
  - # 2
    frequency:     0.8516867003
  - # 3
    frequency:     1.2417963328
  - # 4
    frequency:     2.2238236506
  - # 5
    frequency:     2.2238236506
  - # 6
    frequency:     3.4705690629

- q-position: [    0.1875000,    0.0000000,    0.0000000 ]
  weight: 8    
  band:
  - # 1
    frequency:     0.9372883279
  - # 2
    frequency:     0.9372883279
  - # 3
    frequency:     1.3643526942
  - # 4
    frequency:     2.3589072947
  - # 5
    frequency:     2.3589072947
  - # 6
    frequency:     3.4954577944

- q-position: [    0.2083333,    0.0000000,    0.0000000 ]
  weight: 8    
  band:
  - # 1
    frequency:     1.0195498969
  - # 2
    frequency:     1.0195498969
  - # 3
    frequency:     1.4790967710
  - # 4
    frequency:     2.4811811941
  - # 5
    frequency:     2.4811811941
  - # 6
    frequency:     3.5197503142

- q-position: [    0.2291667,    0.0000000,    0.0000000 ]
  weight: 8    
  band:
  - # 1
    frequency:     1.0985676654
  - # 2
    frequency:     1.0985676654
  - # 3
    frequency:     1.5869318818
  - # 4
    frequency:     2.5887978622
  - # 5
    frequency:     2.5887978622
  - # 6
    frequency:     3.5417927426

- q-position: [    0.2500000,    0.0000000,    0.0000000 ]
  weight: 8    
  band:
  - # 1
    frequency:     1.1743959072
  - # 2
    frequency:     1.1743959072
  - # 3
    frequency:     1.6890955288
  - # 4
    frequency:     2.6807236510
  - # 5
    frequency:     2.6807236510
  - # 6
    frequency:     3.5597903802

- q-position: [    0.2708333,    0.0000000,    0.0000000 ]
  weight: 8    
  band:
  - # 1
    frequency:     1.2470505579
  - # 2
    frequency:     1.2470505579
  - # 3
    frequency:     1.7870750423
  - # 4
    frequency:     2.7566191757
  - # 5
    frequency:     2.7566191757
  - # 6
    frequency:     3.5719172863

- q-position: [    0.2916667,    0.0000000,    0.0000000 ]
  weight: 8    
  band:
  - # 1
    frequency:     1.3164950950
  - # 2
    frequency:     1.3164950950
  - # 3
    frequency:     1.8824894838
  - # 4
    frequency:     2.8167484761
  - # 5
    frequency:     2.8167484761
  - # 6
    frequency:     3.5764348270

- q-position: [    0.3125000,    0.0000000,    0.0000000 ]
  weight: 8    
  band:
  - # 1
    frequency:     1.3826139050
  - # 2
    frequency:     1.3826139050
  - # 3
    frequency:     1.9769399992
  - # 4
    frequency:     2.8619059439
  - # 5
    frequency:     2.8619059439
  - # 6
    frequency:     3.5718111544

- q-position: [    0.3333333,    0.0000000,    0.0000000 ]
  weight: 8    
  band:
  - # 1
    frequency:     1.4451772482
  - # 2
    frequency:     1.4451772482
  - # 3
    frequency:     2.0718358181
  - # 4
    frequency:     2.8933533828
  - # 5
    frequency:     2.8933533828
  - # 6
    frequency:     3.5568370956

- q-position: [    0.3541667,    0.0000000,    0.0000000 ]
  weight: 8    
  band:
  - # 1
    frequency:     1.5038019193
  - # 2
    frequency:     1.5038019193
  - # 3
    frequency:     2.1682064581
  - # 4
    frequency:     2.9127614016
  - # 5
    frequency:     2.9127614016
  - # 6
    frequency:     3.5307391393

- q-position: [    0.3750000,    0.0000000,    0.0000000 ]
  weight: 8    
  band:
  - # 1
    frequency:     1.5579132752
  - # 2
    frequency:     1.5579132752
  - # 3
    frequency:     2.2665074017
  - # 4
    frequency:     2.9221492175
  - # 5
    frequency:     2.9221492175
  - # 6
    frequency:     3.4932990919

- q-position: [    0.3958333,    0.0000000,    0.0000000 ]
  weight: 8    
  band:
  - # 1
    frequency:     1.6067178402
  - # 2
    frequency:     1.6067178402
  - # 3
    frequency:     2.3664083300
  - # 4
    frequency:     2.9238145926
  - # 5
    frequency:     2.9238145926
  - # 6
    frequency:     3.4450085594

- q-position: [    0.4166667,    0.0000000,    0.0000000 ]
  weight: 8    
  band:
  - # 1
    frequency:     1.6492011338
  - # 2
    frequency:     1.6492011338
  - # 3
    frequency:     2.4665025652
  - # 4
    frequency:     2.9202411890
  - # 5
    frequency:     2.9202411890
  - # 6
    frequency:     3.3873317095

- q-position: [    0.4375000,    0.0000000,    0.0000000 ]
  weight: 8    
  band:
  - # 1
    frequency:     1.6841708465
  - # 2
    frequency:     1.6841708465
  - # 3
    frequency:     2.5637476305
  - # 4
    frequency:     2.9139659918
  - # 5
    frequency:     2.9139659918
  - # 6
    frequency:     3.3232697758

- q-position: [    0.4583333,    0.0000000,    0.0000000 ]
  weight: 8    
  band:
  - # 1
    frequency:     1.7103655000
  - # 2
    frequency:     1.7103655000
  - # 3
    frequency:     2.6521333067
  - # 4
    frequency:     2.9073900704
  - # 5
    frequency:     2.9073900704
  - # 6
    frequency:     3.2587251901

- q-position: [    0.4791667,    0.0000000,    0.0000000 ]
  weight: 8    
  band:
  - # 1
    frequency:     1.7266340060
  - # 2
    frequency:     1.7266340060
  - # 3
    frequency:     2.7197149638
  - # 4
    frequency:     2.9025310033
  - # 5
    frequency:     2.9025310033
  - # 6
    frequency:     3.2055153201

- q-position: [    0.5000000,    0.0000000,    0.0000000 ]
  weight: 4    
  band:
  - # 1
    frequency:     1.7321564001
  - # 2
    frequency:     1.7321564001
  - # 3
    frequency:     2.7465743079
  - # 4
    frequency:     2.9007503484
  - # 5
    frequency:     2.9007503484
  - # 6
    frequency:     3.1834590086

- q-position: [    0.0208333,    0.0208333,    0.0000000 ]
  weight: 6    
  band:
  - # 1
    frequency:     0.1282865103
  - # 2
    frequency:     0.1282865103
  - # 3
    frequency:     0.2191081853
  - # 4
    frequency:     1.3369050631
  - # 5
    frequency:     1.3369050631
  - # 6
    frequency:     3.3654967722

- q-position: [    0.0416667,    0.0208333,    0.0000000 ]
  weight: 24   
  band:
  - # 1
    frequency:     0.2171119491
  - # 2
    frequency:     0.2243688246
  - # 3
    frequency:     0.3482695494
  - # 4
    frequency:     1.3849508542
  - # 5
    frequency:     1.3888107821
  - # 6
    frequency:     3.3705050276

- q-position: [    0.0625000,    0.0208333,    0.0000000 ]
  weight: 24   
  band:
  - # 1
    frequency:     0.3227315501
  - # 2
    frequency:     0.3377824586
  - # 3
    frequency:     0.4957647129
  - # 4
    frequency:     1.4713795177
  - # 5
    frequency:     1.4818072344
  - # 6
    frequency:     3.3777147648

- q-position: [    0.0833333,    0.0208333,    0.0000000 ]
  weight: 24   
  band:
  - # 1
    frequency:     0.4273525823
  - # 2
    frequency:     0.4477144735
  - # 3
    frequency:     0.6475448039
  - # 4
    frequency:     1.5872286781
  - # 5
    frequency:     1.6041246815
  - # 6
    frequency:     3.3881578045

- q-position: [    0.1041667,    0.0208333,    0.0000000 ]
  weight: 24   
  band:
  - # 1
    frequency:     0.5275158562
  - # 2
    frequency:     0.5521567693
  - # 3
    frequency:     0.7976924059
  - # 4
    frequency:     1.7224854274
  - # 5
    frequency:     1.7451661071
  - # 6
    frequency:     3.4019742212

- q-position: [    0.1250000,    0.0208333,    0.0000000 ]
  weight: 24   
  band:
  - # 1
    frequency:     0.6228926387
  - # 2
    frequency:     0.6517306327
  - # 3
    frequency:     0.9430921492
  - # 4
    frequency:     1.8678393259
  - # 5
    frequency:     1.8954901494
  - # 6
    frequency:     3.4190407651

- q-position: [    0.1458333,    0.0208333,    0.0000000 ]
  weight: 24   
  band:
  - # 1
    frequency:     0.7138910593
  - # 2
    frequency:     0.7472075756
  - # 3
    frequency:     1.0819750531
  - # 4
    frequency:     2.0155455267
  - # 5
    frequency:     2.0473713302
  - # 6
    frequency:     3.4389912047

- q-position: [    0.1666667,    0.0208333,    0.0000000 ]
  weight: 24   
  band:
  - # 1
    frequency:     0.8009809873
  - # 2
    frequency:     0.8390849548
  - # 3
    frequency:     1.2133959411
  - # 4
    frequency:     2.1595791754
  - # 5
    frequency:     2.1948429373
  - # 6
    frequency:     3.4611714636

- q-position: [    0.1875000,    0.0208333,    0.0000000 ]
  weight: 24   
  band:
  - # 1
    frequency:     0.8845396649
  - # 2
    frequency:     0.9276006778
  - # 3
    frequency:     1.3370254804
  - # 4
    frequency:     2.2954548131
  - # 5
    frequency:     2.3334644437
  - # 6
    frequency:     3.4846132902

- q-position: [    0.2083333,    0.0208333,    0.0000000 ]
  weight: 24   
  band:
  - # 1
    frequency:     0.9648550391
  - # 2
    frequency:     1.0128264214
  - # 3
    frequency:     1.4530513541
  - # 4
    frequency:     2.4199666012
  - # 5
    frequency:     2.4600450851
  - # 6
    frequency:     3.5080436497

- q-position: [    0.2291667,    0.0208333,    0.0000000 ]
  weight: 24   
  band:
  - # 1
    frequency:     1.0421568601
  - # 2
    frequency:     1.0947447255
  - # 3
    frequency:     1.5621105313
  - # 4
    frequency:     2.5309561135
  - # 5
    frequency:     2.5724134596
  - # 6
    frequency:     3.5299316214

- q-position: [    0.2500000,    0.0208333,    0.0000000 ]
  weight: 24   
  band:
  - # 1
    frequency:     1.1166360334
  - # 2
    frequency:     1.1732933620
  - # 3
    frequency:     1.6652196157
  - # 4
    frequency:     2.6271315856
  - # 5
    frequency:     2.6692467734
  - # 6
    frequency:     3.5485671806

- q-position: [    0.2708333,    0.0208333,    0.0000000 ]
  weight: 24   
  band:
  - # 1
    frequency:     1.1884451669
  - # 2
    frequency:     1.2483808560
  - # 3
    frequency:     1.7636876085
  - # 4
    frequency:     2.7079320061
  - # 5
    frequency:     2.7499481684
  - # 6
    frequency:     3.5621625553

- q-position: [    0.2916667,    0.0208333,    0.0000000 ]
  weight: 24   
  band:
  - # 1
    frequency:     1.2576826736
  - # 2
    frequency:     1.3198796834
  - # 3
    frequency:     1.8590036318
  - # 4
    frequency:     2.7734231060
  - # 5
    frequency:     2.8145569064
  - # 6
    frequency:     3.5689662635

- q-position: [    0.3125000,    0.0208333,    0.0000000 ]
  weight: 24   
  band:
  - # 1
    frequency:     1.3243644928
  - # 2
    frequency:     1.3876025686
  - # 3
    frequency:     1.9526977735
  - # 4
    frequency:     2.8242140029
  - # 5
    frequency:     2.8636789518
  - # 6
    frequency:     3.5673815563

- q-position: [    0.3333333,    0.0208333,    0.0000000 ]
  weight: 24   
  band:
  - # 1
    frequency:     1.3883872931
  - # 2
    frequency:     1.4512668693
  - # 3
    frequency:     2.0461779752
  - # 4
    frequency:     2.8613863927
  - # 5
    frequency:     2.8984292679
  - # 6
    frequency:     3.5560838522

- q-position: [    0.3541667,    0.0208333,    0.0000000 ]
  weight: 24   
  band:
  - # 1
    frequency:     1.4494869638
  - # 2
    frequency:     1.5104531394
  - # 3
    frequency:     2.1405488375
  - # 4
    frequency:     2.8864305247
  - # 5
    frequency:     2.9203802469
  - # 6
    frequency:     3.5341357247

- q-position: [    0.3750000,    0.0208333,    0.0000000 ]
  weight: 24   
  band:
  - # 1
    frequency:     1.5071970966
  - # 2
    frequency:     1.5645660590
  - # 3
    frequency:     2.2364163169
  - # 4
    frequency:     2.9011830018
  - # 5
    frequency:     2.9315125520
  - # 6
    frequency:     3.5011045491

- q-position: [    0.3958333,    0.0208333,    0.0000000 ]
  weight: 24   
  band:
  - # 1
    frequency:     1.5608145679
  - # 2
    frequency:     1.6128084122
  - # 3
    frequency:     2.3336692677
  - # 4
    frequency:     2.9077603149
  - # 5
    frequency:     2.9341654190
  - # 6
    frequency:     3.4572013547

- q-position: [    0.4166667,    0.0208333,    0.0000000 ]
  weight: 24   
  band:
  - # 1
    frequency:     1.6093835691
  - # 2
    frequency:     1.6541818273
  - # 3
    frequency:     2.4311905731
  - # 4
    frequency:     2.9084787622
  - # 5
    frequency:     2.9309847306
  - # 6
    frequency:     3.4034912049

- q-position: [    0.4375000,    0.0208333,    0.0000000 ]
  weight: 24   
  band:
  - # 1
    frequency:     1.6517148585
  - # 2
    frequency:     1.6875315116
  - # 3
    frequency:     2.5263546395
  - # 4
    frequency:     2.9057467161
  - # 5
    frequency:     2.9248706046
  - # 6
    frequency:     3.3423077520

- q-position: [    0.4583333,    0.0208333,    0.0000000 ]
  weight: 24   
  band:
  - # 1
    frequency:     1.6864604629
  - # 2
    frequency:     1.7116526694
  - # 3
    frequency:     2.6139662654
  - # 4
    frequency:     2.9019122443
  - # 5
    frequency:     2.9189005498
  - # 6
    frequency:     3.2782232782

- q-position: [    0.4791667,    0.0208333,    0.0000000 ]
  weight: 24   
  band:
  - # 1
    frequency:     1.7122583965
  - # 2
    frequency:     1.7254647465
  - # 3
    frequency:     2.6842421329
  - # 4
    frequency:     2.8990549396
  - # 5
    frequency:     2.9158241870
  - # 6
    frequency:     3.2203640421

- q-position: [    0.5000000,    0.0208333,    0.0000000 ]
  weight: 24   
  band:
  - # 1
    frequency:     1.7279386093
  - # 2
    frequency:     1.7282281306
  - # 3
    frequency:     2.7219620546
  - # 4
    frequency:     2.8987339591
  - # 5
    frequency:     2.9152114210
  - # 6
    frequency:     3.1858770395

- q-position: [   -0.4791667,    0.0208333,    0.0000000 ]
  weight: 24   
  band:
  - # 1
    frequency:     1.7196158422
  - # 2
    frequency:     1.7327415703
  - # 3
    frequency:     2.7141056086
  - # 4
    frequency:     2.9017434328
  - # 5
    frequency:     2.9124027213
  - # 6
    frequency:     3.1931652804

- q-position: [   -0.4583333,    0.0208333,    0.0000000 ]
  weight: 24   
  band:
  - # 1
    frequency:     1.7001071511
  - # 2
    frequency:     1.7264690681
  - # 3
    frequency:     2.6639957179
  - # 4
    frequency:     2.9079571535
  - # 5
    frequency:     2.9084776709
  - # 6
    frequency:     3.2376246451

- q-position: [   -0.4375000,    0.0208333,    0.0000000 ]
  weight: 24   
  band:
  - # 1
    frequency:     1.6707337564
  - # 2
    frequency:     1.7094997849
  - # 3
    frequency:     2.5867181509
  - # 4
    frequency:     2.9076029210
  - # 5
    frequency:     2.9163301460
  - # 6
    frequency:     3.2989637563

- q-position: [   -0.4166667,    0.0208333,    0.0000000 ]
  weight: 24   
  band:
  - # 1
    frequency:     1.6328245973
  - # 2
    frequency:     1.6826653487
  - # 3
    frequency:     2.4958532255
  - # 4
    frequency:     2.9088300957
  - # 5
    frequency:     2.9250601288
  - # 6
    frequency:     3.3628588201

- q-position: [   -0.3958333,    0.0208333,    0.0000000 ]
  weight: 24   
  band:
  - # 1
    frequency:     1.5878309916
  - # 2
    frequency:     1.6470489932
  - # 3
    frequency:     2.3994101985
  - # 4
    frequency:     2.9092960155
  - # 5
    frequency:     2.9318442118
  - # 6
    frequency:     3.4220304482

- q-position: [   -0.3750000,    0.0208333,    0.0000000 ]
  weight: 24   
  band:
  - # 1
    frequency:     1.5371260779
  - # 2
    frequency:     1.6037879195
  - # 3
    frequency:     2.3015929352
  - # 4
    frequency:     2.9061119299
  - # 5
    frequency:     2.9341463118
  - # 6
    frequency:     3.4727926221

- q-position: [   -0.3541667,    0.0208333,    0.0000000 ]
  weight: 24   
  band:
  - # 1
    frequency:     1.4818743430
  - # 2
    frequency:     1.5539316132
  - # 3
    frequency:     2.2044802704
  - # 4
    frequency:     2.8966101380
  - # 5
    frequency:     2.9294192051
  - # 6
    frequency:     3.5132861772

- q-position: [   -0.3333333,    0.0208333,    0.0000000 ]
  weight: 24   
  band:
  - # 1
    frequency:     1.4229711341
  - # 2
    frequency:     1.4983677205
  - # 3
    frequency:     2.1088473456
  - # 4
    frequency:     2.8783783573
  - # 5
    frequency:     2.9152658624
  - # 6
    frequency:     3.5427502696

- q-position: [   -0.3125000,    0.0208333,    0.0000000 ]
  weight: 24   
  band:
  - # 1
    frequency:     1.3610351709
  - # 2
    frequency:     1.4378017765
  - # 3
    frequency:     2.0145697963
  - # 4
    frequency:     2.8492962451
  - # 5
    frequency:     2.8895504977
  - # 6
    frequency:     3.5611972585

- q-position: [   -0.2916667,    0.0208333,    0.0000000 ]
  weight: 24   
  band:
  - # 1
    frequency:     1.2964348907
  - # 2
    frequency:     1.3727702875
  - # 3
    frequency:     1.9208764023
  - # 4
    frequency:     2.8075808190
  - # 5
    frequency:     2.8504773119
  - # 6
    frequency:     3.5692343874

- q-position: [   -0.2708333,    0.0208333,    0.0000000 ]
  weight: 24   
  band:
  - # 1
    frequency:     1.2293328173
  - # 2
    frequency:     1.3036699975
  - # 3
    frequency:     1.8265545635
  - # 4
    frequency:     2.7518371622
  - # 5
    frequency:     2.7966524941
  - # 6
    frequency:     3.5679353607

- q-position: [   -0.2500000,    0.0208333,    0.0000000 ]
  weight: 24   
  band:
  - # 1
    frequency:     1.1597360438
  - # 2
    frequency:     1.2307919489
  - # 3
    frequency:     1.7301403307
  - # 4
    frequency:     2.6811139783
  - # 5
    frequency:     2.7271402782
  - # 6
    frequency:     3.5587248165

- q-position: [   -0.2291667,    0.0208333,    0.0000000 ]
  weight: 24   
  band:
  - # 1
    frequency:     1.0875441595
  - # 2
    frequency:     1.1543535642
  - # 3
    frequency:     1.6300955887
  - # 4
    frequency:     2.5949653995
  - # 5
    frequency:     2.6415203503
  - # 6
    frequency:     3.5432624955

- q-position: [   -0.2083333,    0.0208333,    0.0000000 ]
  weight: 24   
  band:
  - # 1
    frequency:     1.0125885128
  - # 2
    frequency:     1.0745245775
  - # 3
    frequency:     1.5249656743
  - # 4
    frequency:     2.4935222774
  - # 5
    frequency:     2.5399526048
  - # 6
    frequency:     3.5233245168

- q-position: [   -0.1875000,    0.0208333,    0.0000000 ]
  weight: 24   
  band:
  - # 1
    frequency:     0.9346583962
  - # 2
    frequency:     0.9914434690
  - # 3
    frequency:     1.4135107754
  - # 4
    frequency:     2.3775789197
  - # 5
    frequency:     2.4232560496
  - # 6
    frequency:     3.5006847931

- q-position: [   -0.1666667,    0.0208333,    0.0000000 ]
  weight: 24   
  band:
  - # 1
    frequency:     0.8535104748
  - # 2
    frequency:     0.9052205930
  - # 3
    frequency:     1.2948084747
  - # 4
    frequency:     2.2487048251
  - # 5
    frequency:     2.2930111701
  - # 6
    frequency:     3.4770032407

- q-position: [   -0.1458333,    0.0208333,    0.0000000 ]
  weight: 24   
  band:
  - # 1
    frequency:     0.7688584152
  - # 2
    frequency:     0.8159232256
  - # 3
    frequency:     1.1683296956
  - # 4
    frequency:     2.1093945055
  - # 5
    frequency:     2.1516984488
  - # 6
    frequency:     3.4537298658

- q-position: [   -0.1250000,    0.0208333,    0.0000000 ]
  weight: 24   
  band:
  - # 1
    frequency:     0.6803436593
  - # 2
    frequency:     0.7235384141
  - # 3
    frequency:     1.0339951730
  - # 4
    frequency:     1.9632689654
  - # 5
    frequency:     2.0028872812
  - # 6
    frequency:     3.4320345393

- q-position: [   -0.1041667,    0.0208333,    0.0000000 ]
  weight: 24   
  band:
  - # 1
    frequency:     0.5875056569
  - # 2
    frequency:     0.6279184364
  - # 3
    frequency:     0.8922262829
  - # 4
    frequency:     1.8153311509
  - # 5
    frequency:     1.8514810754
  - # 6
    frequency:     3.4127703237

- q-position: [   -0.0833333,    0.0208333,    0.0000000 ]
  weight: 24   
  band:
  - # 1
    frequency:     0.4898274242
  - # 2
    frequency:     0.5287491622
  - # 3
    frequency:     0.7440196939
  - # 4
    frequency:     1.6722352906
  - # 5
    frequency:     1.7039856106
  - # 6
    frequency:     3.3964726895

- q-position: [   -0.0625000,    0.0208333,    0.0000000 ]
  weight: 24   
  band:
  - # 1
    frequency:     0.3871016245
  - # 2
    frequency:     0.4256854437
  - # 3
    frequency:     0.5911245303
  - # 4
    frequency:     1.5424318516
  - # 5
    frequency:     1.5686641316
  - # 6
    frequency:     3.3833865971

- q-position: [   -0.0416667,    0.0208333,    0.0000000 ]
  weight: 24   
  band:
  - # 1
    frequency:     0.2809173322
  - # 2
    frequency:     0.3190631945
  - # 3
    frequency:     0.4365954068
  - # 4
    frequency:     1.4359260252
  - # 5
    frequency:     1.4552638242
  - # 6
    frequency:     3.3734920960

- q-position: [   -0.0208333,    0.0208333,    0.0000000 ]
  weight: 12   
  band:
  - # 1
    frequency:     0.1808456000
  - # 2
    frequency:     0.2125149472
  - # 3
    frequency:     0.2870889002
  - # 4
    frequency:     1.3634395716
  - # 5
    frequency:     1.3738919483
  - # 6
    frequency:     3.3664551890

- q-position: [    0.0416667,    0.0416667,    0.0000000 ]
  weight: 6    
  band:
  - # 1
    frequency:     0.2482411672
  - # 2
    frequency:     0.2482411672
  - # 3
    frequency:     0.4369709622
  - # 4
    frequency:     1.4121395149
  - # 5
    frequency:     1.4121395149
  - # 6
    frequency:     3.3790347319

- q-position: [    0.0625000,    0.0416667,    0.0000000 ]
  weight: 24   
  band:
  - # 1
    frequency:     0.3199844922
  - # 2
    frequency:     0.3255824762
  - # 3
    frequency:     0.5557762705
  - # 4
    frequency:     1.4777032426
  - # 5
    frequency:     1.4824326412
  - # 6
    frequency:     3.3868567068

- q-position: [    0.0833333,    0.0416667,    0.0000000 ]
  weight: 24   
  band:
  - # 1
    frequency:     0.4068042959
  - # 2
    frequency:     0.4226408008
  - # 3
    frequency:     0.6866481398
  - # 4
    frequency:     1.5745419501
  - # 5
    frequency:     1.5896910370
  - # 6
    frequency:     3.3950660620

- q-position: [    0.1041667,    0.0416667,    0.0000000 ]
  weight: 24   
  band:
  - # 1
    frequency:     0.4966391785
  - # 2
    frequency:     0.5230013116
  - # 3
    frequency:     0.8218978211
  - # 4
    frequency:     1.6938023413
  - # 5
    frequency:     1.7207995790
  - # 6
    frequency:     3.4051881074

- q-position: [    0.1250000,    0.0416667,    0.0000000 ]
  weight: 24   
  band:
  - # 1
    frequency:     0.5851203904
  - # 2
    frequency:     0.6217464164
  - # 3
    frequency:     0.9570455899
  - # 4
    frequency:     1.8265884522
  - # 5
    frequency:     1.8649582640
  - # 6
    frequency:     3.4178325772

- q-position: [    0.1458333,    0.0416667,    0.0000000 ]
  weight: 24   
  band:
  - # 1
    frequency:     0.6708886922
  - # 2
    frequency:     0.7177416229
  - # 3
    frequency:     1.0891247016
  - # 4
    frequency:     1.9650553063
  - # 5
    frequency:     2.0136340609
  - # 6
    frequency:     3.4330686585

- q-position: [    0.1666667,    0.0416667,    0.0000000 ]
  weight: 24   
  band:
  - # 1
    frequency:     0.7536664327
  - # 2
    frequency:     0.8108247908
  - # 3
    frequency:     1.2162078137
  - # 4
    frequency:     2.1028336107
  - # 5
    frequency:     2.1602617636
  - # 6
    frequency:     3.4505843078

- q-position: [    0.1875000,    0.0416667,    0.0000000 ]
  weight: 24   
  band:
  - # 1
    frequency:     0.8335398039
  - # 2
    frequency:     0.9009719243
  - # 3
    frequency:     1.3371888822
  - # 4
    frequency:     2.2350284211
  - # 5
    frequency:     2.2999093428
  - # 6
    frequency:     3.4697218849

- q-position: [    0.2083333,    0.0416667,    0.0000000 ]
  weight: 24   
  band:
  - # 1
    frequency:     0.9107102411
  - # 2
    frequency:     0.9881115494
  - # 3
    frequency:     1.4516345833
  - # 4
    frequency:     2.3580429758
  - # 5
    frequency:     2.4289598999
  - # 6
    frequency:     3.4894966358

- q-position: [    0.2291667,    0.0416667,    0.0000000 ]
  weight: 24   
  band:
  - # 1
    frequency:     0.9854131489
  - # 2
    frequency:     1.0721199391
  - # 3
    frequency:     1.5596673209
  - # 4
    frequency:     2.4693722508
  - # 5
    frequency:     2.5448574381
  - # 6
    frequency:     3.5086349351

- q-position: [    0.2500000,    0.0416667,    0.0000000 ]
  weight: 24   
  band:
  - # 1
    frequency:     1.0578867135
  - # 2
    frequency:     1.1528472663
  - # 3
    frequency:     1.6618616200
  - # 4
    frequency:     2.5674217091
  - # 5
    frequency:     2.6459239812
  - # 6
    frequency:     3.5256392707

- q-position: [    0.2708333,    0.0416667,    0.0000000 ]
  weight: 24   
  band:
  - # 1
    frequency:     1.1283490453
  - # 2
    frequency:     1.2301319895
  - # 3
    frequency:     1.7591403680
  - # 4
    frequency:     2.6513617157
  - # 5
    frequency:     2.7312353522
  - # 6
    frequency:     3.5388753644

- q-position: [    0.2916667,    0.0416667,    0.0000000 ]
  weight: 24   
  band:
  - # 1
    frequency:     1.1969710022
  - # 2
    frequency:     1.3037932321
  - # 3
    frequency:     1.8526619434
  - # 4
    frequency:     2.7210120442
  - # 5
    frequency:     2.8005382608
  - # 6
    frequency:     3.5466738653

- q-position: [    0.3125000,    0.0416667,    0.0000000 ]
  weight: 24   
  band:
  - # 1
    frequency:     1.2638424715
  - # 2
    frequency:     1.3736004907
  - # 3
    frequency:     1.9436933030
  - # 4
    frequency:     2.7767478440
  - # 5
    frequency:     2.8541926985
  - # 6
    frequency:     3.5474404108

- q-position: [    0.3333333,    0.0416667,    0.0000000 ]
  weight: 24   
  band:
  - # 1
    frequency:     1.3289333598
  - # 2
    frequency:     1.4392251079
  - # 3
    frequency:     2.0334663159
  - # 4
    frequency:     2.8194197345
  - # 5
    frequency:     2.8931273488
  - # 6
    frequency:     3.5397703603

- q-position: [    0.3541667,    0.0416667,    0.0000000 ]
  weight: 24   
  band:
  - # 1
    frequency:     1.3920517667
  - # 2
    frequency:     1.5001836453
  - # 3
    frequency:     2.1230141545
  - # 4
    frequency:     2.8502826472
  - # 5
    frequency:     2.9188010330
  - # 6
    frequency:     3.5225665173

- q-position: [    0.3750000,    0.0416667,    0.0000000 ]
  weight: 24   
  band:
  - # 1
    frequency:     1.4528027556
  - # 2
    frequency:     1.5557887084
  - # 3
    frequency:     2.2129807853
  - # 4
    frequency:     2.8709292461
  - # 5
    frequency:     2.9331692699
  - # 6
    frequency:     3.4951607451

- q-position: [    0.3958333,    0.0416667,    0.0000000 ]
  weight: 24   
  band:
  - # 1
    frequency:     1.5105527600
  - # 2
    frequency:     1.6051249496
  - # 3
    frequency:     2.3033873814
  - # 4
    frequency:     2.8832235630
  - # 5
    frequency:     2.9386606946
  - # 6
    frequency:     3.4574476493

- q-position: [    0.4166667,    0.0416667,    0.0000000 ]
  weight: 24   
  band:
  - # 1
    frequency:     1.5644076210
  - # 2
    frequency:     1.6470658848
  - # 3
    frequency:     2.3933171591
  - # 4
    frequency:     2.8892285159
  - # 5
    frequency:     2.9381727570
  - # 6
    frequency:     3.4100584646

- q-position: [    0.4375000,    0.0416667,    0.0000000 ]
  weight: 24   
  band:
  - # 1
    frequency:     1.6132165882
  - # 2
    frequency:     1.6803433379
  - # 3
    frequency:     2.4804323253
  - # 4
    frequency:     2.8911173007
  - # 5
    frequency:     2.9350910586
  - # 6
    frequency:     3.3546550978

- q-position: [    0.4583333,    0.0416667,    0.0000000 ]
  weight: 24   
  band:
  - # 1