48   
288  

1    
  0.0099998898507493   0.0000036799846491   0.0000467913517119
  -0.5166989000   -0.0537142000    0.0391382100
   0.0007412500    0.0025380900   -0.0033372700
   0.0020556800    0.0029941000   -0.0018921900
   0.0000880400   -0.0010182800   -0.0010524100
   0.1201081200   -0.0360385000    0.0284627000
  -0.0000546800   -0.0017215700   -0.0012640400
  -0.0012482300   -0.0000550300   -0.0010931500
  -0.0001973800   -0.0007523700    0.0008077500
  -0.0010482900    0.0000639700   -0.0008371000
   0.0003982800   -0.0007764500   -0.0002588000
   0.0000560200   -0.0005461500    0.0003150900
  -0.0004240900    0.0003949600   -0.0008428700
  -0.0011419800    0.0004269000   -0.0005120000
   0.0001994000    0.0002155000    0.0006869100
  -0.0019179800    0.0021269600    0.0041273800
  -0.0062650600   -0.0005634600   -0.0046226700
   0.0178685700   -0.0217863600    0.0171625200
   0.2724803400    0.0557455000   -0.0764553100
   0.0630856400    0.0604836800    0.0194640300
   0.0470810600   -0.0031116600   -0.0274541500
   0.0001034600    0.0004188800   -0.0003081800
   0.0000684100    0.0003344700   -0.0003932500
   0.0004768800   -0.0001510000    0.0000914500
  -0.0004696300    0.0000762400   -0.0001967100
  -0.0003350400    0.0001250100   -0.0002766400
  -0.0001507700   -0.0002321900    0.0002443900
   0.0008347000   -0.0001603300   -0.0000439100
   0.0000111400    0.0001671500    0.0009803700
   0.0002441400   -0.0006006000    0.0001188500
   0.0001610100   -0.0000376800   -0.0001184100
  -0.0000115400   -0.0001042600   -0.0007523200
  -0.0003565700    0.0003697800    0.0000312500
   0.0030635000   -0.0073030800   -0.0054401700
  -0.0060785500    0.0004462000   -0.0034160600
  -0.0110674900    0.0031522300   -0.0007255000
   0.0078731100   -0.0072611900    0.0075884600
   0.0049900300    0.0004247400    0.0009239800
   0.0009981800   -0.0009798900    0.0015761600
   0.0070742400    0.0026419700    0.0023363800
  -0.0071086800    0.0010782800    0.0016669400
   0.0008126700   -0.0015769500    0.0003336300
   0.0011783700    0.0011010600   -0.0033540600
  -0.0052970100   -0.0044308200    0.0031748100
   0.0036227000    0.0017810600    0.0022919500
   0.0050940100    0.0014750600    0.0047988700
   0.0002842200    0.0072879300    0.0047068300
  -0.0008277500   -0.0013418900   -0.0021137200
  -0.0003535400   -0.0016058100   -0.0042679700

1    
 -0.0099998898507493  -0.0000036799846491  -0.0000467913517119
   0.4962388200    0.0471888100   -0.0317380800
   0.0006977400    0.0026346500   -0.0033809100
   0.0020203700    0.0029712300   -0.0018962500
   0.0001768000   -0.0011058300   -0.0010544200
  -0.1228542600    0.0394892700   -0.0293278500
  -0.0002300600   -0.0016922500   -0.0012942200
  -0.0012473400   -0.0000431600   -0.0010103300
  -0.0002481300   -0.0007192200    0.0009363400
  -0.0011050800    0.0001007000   -0.0008070200
   0.0004308000   -0.0007738800   -0.0002502900
   0.0000828800   -0.0004897000    0.0003722500
  -0.0006160500    0.0001019900   -0.0007684700
  -0.0012458700    0.0004751900   -0.0003664200
   0.0005992000   -0.0000426900    0.0006359500
   0.0007304600   -0.0011045300   -0.0026749900
   0.0051344000    0.0015269600    0.0051367300
  -0.0178527800    0.0230339000   -0.0173240300
  -0.2564375500   -0.0512181900    0.0693006400
  -0.0606047500   -0.0597550600   -0.0195255300
  -0.0446659500    0.0042005900    0.0245778800
   0.0001133000    0.0004554900   -0.0003739500
   0.0000482600    0.0003378100   -0.0005272400
   0.0004783000   -0.0001349300    0.0000354200
  -0.0004738300    0.0000836700   -0.0001976400
  -0.0003015000    0.0001353600   -0.0003095700
  -0.0001527500   -0.0002387400    0.0002226100
   0.0007778400   -0.0001806100   -0.0001769000
   0.0001113200    0.0001597900    0.0008464700
   0.0002567500   -0.0005794700    0.0000287500
   0.0001642600   -0.0000388500   -0.0001275600
  -0.0000830700   -0.0000498600   -0.0007793900
  -0.0003560400    0.0003719900    0.0000425700
   0.0022706300   -0.0075987800   -0.0047820600
  -0.0058573100    0.0004221800   -0.0040225800
  -0.0114910200    0.0029637900    0.0000950700
   0.0086326300   -0.0072830700    0.0067804200
   0.0054739700    0.0002866100    0.0012162900
   0.0008961700   -0.0011139800    0.0015181100
   0.0055374200    0.0022268000    0.0037318800
  -0.0068406500    0.0020973500    0.0017442600
   0.0007114600   -0.0014405200    0.0003992600
   0.0011061900    0.0009567200   -0.0031149300
  -0.0059141500   -0.0026743600    0.0045590600
   0.0025400800    0.0029777700    0.0007457800
   0.0049593800    0.0010725000    0.0049082900
   0.0002684000    0.0072842600    0.0049276300
  -0.0008083000   -0.0013036300   -0.0018718700
  -0.0010713800   -0.0039741100   -0.0050591700

1    
  0.0000039409279496   0.0099999425876434   0.0000336558007275
  -0.0473243000   -0.4929775100   -0.0387607500
   0.0007635200    0.0025895700   -0.0033636600
   0.0020212500    0.0029702600   -0.0019060800
   0.0001820400   -0.0011149600   -0.0010597100
  -0.0393841300    0.1274982900   -0.0303122900
  -0.0001050800   -0.0017933100   -0.0013172500
  -0.0012404400   -0.0000385000   -0.0010100000
  -0.0002448100   -0.0007078800    0.0009444100
  -0.0010490000    0.0001507800   -0.0008025400
   0.0004049600   -0.0007797400   -0.0002496700
   0.0000885300   -0.0005622800    0.0003430100
  -0.0006365700    0.0003765600   -0.0007834600
  -0.0012215800    0.0004918900   -0.0003572800
   0.0002681100    0.0000735000    0.0007196700
   0.0013325900   -0.0017595100   -0.0026417500
  -0.0219019100    0.0200332700   -0.0169779300
  -0.0025265300   -0.0035166700    0.0037284600
   0.0436936200    0.0528936900   -0.0152088000
   0.0672496100    0.2516800100    0.0665796500
  -0.0035446200    0.0475350100    0.0319102800
   0.0001088500    0.0004459900   -0.0003543700
   0.0000560600    0.0003623400   -0.0005065200
   0.0004969400   -0.0001417500    0.0000468600
  -0.0004754900    0.0000838000   -0.0002061300
  -0.0003247900    0.0001162500   -0.0003055500
  -0.0001512400   -0.0002354100    0.0002168800
   0.0007932700   -0.0001769600   -0.0001616600
   0.0000740200    0.0001217000    0.0008380600
   0.0002588600   -0.0005686500    0.0000114600
   0.0001647100   -0.0000376700   -0.0001198100
  -0.0000743800   -0.0000434900   -0.0007798200
  -0.0003589100    0.0003712800    0.0000333500
   0.0026440600   -0.0077847800   -0.0054759700
  -0.0058545600    0.0005977100   -0.0033794500
  -0.0113241400    0.0029642800   -0.0006121400
   0.0084224400   -0.0069260400    0.0075078800
   0.0053235900    0.0000954200    0.0012379200
   0.0009919700   -0.0009986600    0.0015384900
   0.0058660100    0.0023846800    0.0029354700
  -0.0067467600    0.0023875200    0.0025474500
   0.0008183000   -0.0014886800    0.0004289500
   0.0010895500    0.0010826500   -0.0031811000
  -0.0064750800   -0.0031462500    0.0046108800
   0.0024721400    0.0028693300    0.0007421300
   0.0065626300    0.0014477800    0.0044974500
   0.0002388100    0.0072768200    0.0049316700
  -0.0008203300   -0.0013082700   -0.0018713400
  -0.0006018000   -0.0027933900   -0.0046453500

1    
 -0.0000039409279496  -0.0099999425876434  -0.0000336558007275
   0.0530110100    0.5086418600    0.0456086200
   0.0006858100    0.0025935300   -0.0033478400
   0.0020574600    0.0029957100   -0.0018814900
   0.0000802700   -0.0010090100   -0.0010468400
   0.0353778300   -0.1243940600    0.0292047600
  -0.0001747700   -0.0016181500   -0.0012391000
  -0.0012403100   -0.0000517200   -0.0010893800
  -0.0002149500   -0.0007555000    0.0008048800
  -0.0011017600    0.0000138800   -0.0008422500
   0.0004237100   -0.0007705800   -0.0002564500
   0.0000503300   -0.0004709500    0.0003435300
  -0.0004065100    0.0001276300   -0.0008321500
  -0.0011689500    0.0004075800   -0.0005119900
   0.0005369900    0.0000961900    0.0005993900
  -0.0024969800    0.0027747500    0.0041025200
   0.0203367200   -0.0184300200    0.0171118000
   0.0031191800    0.0043255800   -0.0035705700
  -0.0446546800   -0.0535904000    0.0137330000
  -0.0715055000   -0.2665499300   -0.0716593000
   0.0046550700   -0.0476915800   -0.0346086200
   0.0001060700    0.0004349000   -0.0003318000
   0.0000589400    0.0003077100   -0.0004052500
   0.0004648400   -0.0001468200    0.0000765100
  -0.0004658200    0.0000746800   -0.0001893100
  -0.0003120600    0.0001433500   -0.0002781700
  -0.0001532300   -0.0002333100    0.0002487100
   0.0008121100   -0.0001661300   -0.0000619000
   0.0000482900    0.0002042200    0.0009962300
   0.0002412000   -0.0006058000    0.0001334900
   0.0001593900   -0.0000378300   -0.0001277100
  -0.0000215700   -0.0001120800   -0.0007502800
  -0.0003571700    0.0003692000    0.0000395800
   0.0026854100   -0.0071153300   -0.0047500000
  -0.0060799100    0.0002680400   -0.0040597900
  -0.0112374900    0.0031529900   -0.0000219400
   0.0080854400   -0.0076218800    0.0068615200
   0.0051396000    0.0006146700    0.0009021400
   0.0009023000   -0.0010960900    0.0015543700
   0.0067594600    0.0024951100    0.0031069000
  -0.0071919300    0.0008020900    0.0008903700
   0.0007040500   -0.0015303500    0.0003028300
   0.0011930000    0.0009729200   -0.0032878200
  -0.0047378700   -0.0039595800    0.0031230800
   0.0036908700    0.0018934100    0.0022922300
   0.0034620200    0.0011005500    0.0052047900
   0.0003128000    0.0072943800    0.0047022100
  -0.0008174700   -0.0013372800   -0.0021147600
  -0.0008212500   -0.0028105500   -0.0046787400

1    
  0.0000410304835054   0.0000315599614379   0.0099998660225154
   0.0357113100   -0.0442745200   -0.5409862300
   0.0007360700    0.0025840100   -0.0034540500
   0.0020387300    0.0029864400   -0.0019040000
   0.0001298100   -0.0010615400   -0.0010655100
   0.0261982800   -0.0272148300    0.1087182700
  -0.0001127200   -0.0016869800   -0.0013060900
  -0.0012367600   -0.0000473700   -0.0010423700
  -0.0002063600   -0.0007420600    0.0008368300
  -0.0010534600    0.0000682200   -0.0007875600
   0.0004104300   -0.0007774800   -0.0002894600
   0.0000680700   -0.0004834300    0.0003843400
  -0.0004942200    0.0000946800   -0.0007985900
  -0.0011957800    0.0004364800   -0.0003240300
   0.0002559100    0.0000914700    0.0006770700
   0.0216209500   -0.0230345900    0.0149410700
  -0.0065301100    0.0005208300   -0.0043511500
   0.0006011500    0.0064515300   -0.0046729100
  -0.0635177800   -0.0147025300    0.0630396300
   0.0202722300    0.0619071300    0.0623797300
  -0.0362621500    0.0435161100    0.2972235500
   0.0001030500    0.0004031400   -0.0003260400
   0.0000120000    0.0003290100   -0.0003648600
   0.0004449000   -0.0001377800    0.0000579800
  -0.0004644000    0.0000851200   -0.0001764200
  -0.0003112700    0.0001270200   -0.0002923400
  -0.0001543700   -0.0002286800    0.0002379600
   0.0008229600   -0.0001661400   -0.0000939100
   0.0000499900    0.0001628500    0.0009478300
   0.0002465400   -0.0006065800    0.0000881000
   0.0001769800   -0.0000313000   -0.0001121200
  -0.0000418000   -0.0000794700   -0.0007645400
  -0.0003611200    0.0003586700    0.0000439000
   0.0027030700   -0.0073361100   -0.0046695300
  -0.0058771000    0.0005791100   -0.0042098100
  -0.0113769100    0.0029657800   -0.0007864600
   0.0081672200   -0.0073660700    0.0075806600
   0.0055209200    0.0000894900    0.0011351400
   0.0008886500   -0.0009800600    0.0015704500
   0.0065952900    0.0021031900    0.0032908800
  -0.0067121400    0.0011911400    0.0020020200
   0.0007250600   -0.0015187100    0.0004268600
   0.0011472500    0.0010649800   -0.0031854900
  -0.0063279500   -0.0028022300    0.0050617400
   0.0034067200    0.0020213200    0.0019759100
   0.0040253900    0.0010179400    0.0050327400
   0.0002918600    0.0072668900    0.0047899900
  -0.0008058500   -0.0013116400   -0.0020392000
  -0.0003285300   -0.0018324300   -0.0044399800

1    
 -0.0000410304835054  -0.0000315599614379  -0.0099998660225154
  -0.0356068800    0.0400961500    0.5165650000
   0.0006981400    0.0025834600   -0.0032640400
   0.0020319600    0.0029738100   -0.0018849100
   0.0001391700   -0.0010640100   -0.0010399600
  -0.0285004000    0.0293910600   -0.1074802900
  -0.0001763000   -0.0017290900   -0.0012562600
  -0.0012606900   -0.0000526000   -0.0010621400
  -0.0002323900   -0.0007322300    0.0009060000
  -0.0011010800    0.0000959600   -0.0008547000
   0.0004180600   -0.0007731500   -0.0002197700
   0.0000703400   -0.0005534300    0.0003050100
  -0.0005449300    0.0003976300   -0.0008101200
  -0.0011919800    0.0004656400   -0.0005574800
   0.0005368700    0.0000824200    0.0006483900
  -0.0231430800    0.0244135700   -0.0138691200
   0.0054191200    0.0004378800    0.0047873000
   0.0000213000   -0.0056854300    0.0047839400
   0.0635657400    0.0155639300   -0.0627132700
  -0.0194704100   -0.0613164200   -0.0604128600
   0.0350766800   -0.0395706600   -0.2796566800
   0.0001145800    0.0004662100   -0.0003548600
   0.0001055200    0.0003435100   -0.0005639200
   0.0005047100   -0.0001465700    0.0000704500
  -0.0004800300    0.0000742700   -0.0002171200
  -0.0003255000    0.0001338500   -0.0002942300
  -0.0001497100   -0.0002423400    0.0002304000
   0.0007979200   -0.0001721400   -0.0001249100
   0.0000711700    0.0001664100    0.0008674700
   0.0002530000   -0.0005812800    0.0000624800
   0.0001493500   -0.0000467800   -0.0001326900
  -0.0000522400   -0.0000749500   -0.0007682800
  -0.0003498700    0.0003826800    0.0000312100
   0.0026320800   -0.0075605100   -0.0055524200
  -0.0060610900    0.0002877700   -0.0032303900
  -0.0111808700    0.0031575400    0.0001532900
   0.0083399500   -0.0071825800    0.0067902100
   0.0049439900    0.0006217800    0.0010064100
   0.0010043000   -0.0011113800    0.0015266500
   0.0060264300    0.0027757600    0.0027529700
  -0.0072327600    0.0019928600    0.0014102700
   0.0007995200   -0.0014980400    0.0003071300
   0.0011365400    0.0009917200   -0.0032791300
  -0.0048785900   -0.0043076500    0.0026531500
   0.0027529900    0.0027428500    0.0010555000
   0.0059940500    0.0015312200    0.0046695500
   0.0002611600    0.0073052400    0.0048476100
  -0.0008307300   -0.0013338400   -0.0019430000
  -0.0010951100   -0.0037400900   -0.0048878500

2    
  0.0099998898507493   0.0000036799846491   0.0000467913517119
  -0.0024790700    0.0008779100   -0.0017194300
  -0.5130806300    0.0584362600    0.0348567300
   0.0020256300    0.0029756200   -0.0018791400
   0.0001305400   -0.0010556400   -0.0010483400
  -0.0001207300    0.0000977900    0.0009149300
   0.1208715000    0.0356163500    0.0251339500
  -0.0012061500   -0.0000331700   -0.0011007200
  -0.0002204300   -0.0007271100    0.0008417200
   0.2710376100   -0.0611918300   -0.0716807400
   0.0474730600    0.0019279400   -0.0295552400
   0.0610705600   -0.0572275800    0.0214437400
  -0.0057994600    0.0013160600   -0.0054549400
  -0.0028584800   -0.0011501400    0.0029274500
   0.0178548000    0.0228336900    0.0169111000
  -0.0005409600    0.0005354600    0.0006826300
  -0.0004816800    0.0003358500    0.0001728000
   0.0001101100    0.0002713100    0.0000809300
   0.0002603700    0.0003795500   -0.0007441600
   0.0004221700    0.0000655100    0.0000658100
   0.0006280400    0.0005251900   -0.0004197800
   0.0000985600    0.0004293700   -0.0003377400
  -0.0000146200    0.0003052000   -0.0004152700
   0.0004595700   -0.0001466500    0.0000554500
  -0.0004699100    0.0000761500   -0.0001638600
  -0.0002831400    0.0001586900   -0.0002857200
  -0.0001585700   -0.0002352100    0.0002569600
   0.0008213800   -0.0001675500   -0.0000954400
   0.0000807600    0.0001641400    0.0009480000
   0.0002473500   -0.0006150500    0.0000885400
   0.0001668700   -0.0000358500   -0.0001122800
  -0.0000597900   -0.0000716900   -0.0007545500
  -0.0003536500    0.0003674700    0.0000509900
   0.0023339800   -0.0074300500   -0.0047115200
  -0.0057248800    0.0003676100   -0.0041165300
  -0.0113690000    0.0030310200   -0.0000294100
   0.0086173000   -0.0074374900    0.0068548200
   0.0059915300    0.0001672100    0.0003815800
   0.0009255800   -0.0006375600    0.0017752100
   0.0060341000    0.0023778900    0.0028871800
  -0.0069424100    0.0015312800    0.0017301100
   0.0009728300   -0.0005205100   -0.0002605600
   0.0016412500    0.0015682700   -0.0025300800
  -0.0055636400   -0.0034774400    0.0038244400
   0.0031444000    0.0023094200    0.0014122000
   0.0053291300    0.0001248200    0.0051825300
   0.0002854600    0.0073079600    0.0047367000
  -0.0008070000   -0.0013193900   -0.0020823800
  -0.0005002800   -0.0030010600   -0.0047186800

2    
 -0.0099998898507493  -0.0000036799846491  -0.0000467913517119
  -0.0025226000    0.0007802100   -0.0017582400
   0.4990881200   -0.0442033500   -0.0313285400
   0.0020403100    0.0029810200   -0.0019129100
   0.0001409500   -0.0010756600   -0.0010618400
  -0.0003028400    0.0000618600    0.0008810100
  -0.1235113800   -0.0424482500   -0.0302326000
  -0.0012765600   -0.0000525800   -0.0009938900
  -0.0002371400   -0.0007364700    0.0009075800
  -0.2576078200    0.0570802000    0.0647141400
  -0.0454699400   -0.0036267500    0.0270549700
  -0.0593431000    0.0553831500   -0.0209115000
   0.0047967400   -0.0008244500    0.0039202400
   0.0004678300    0.0020578100   -0.0038753100
  -0.0176663600   -0.0230838100   -0.0158484500
  -0.0006367200    0.0004858500    0.0008254600
  -0.0006891100    0.0006309600    0.0002655000
   0.0005066700    0.0005568200    0.0000312100
   0.0002084200    0.0003370100   -0.0007153400
   0.0004512100    0.0000079000    0.0001156700
   0.0006574600    0.0005253900   -0.0004088500
   0.0001210300    0.0004382700   -0.0003397200
   0.0001340700    0.0003707100   -0.0005176300
   0.0004877100   -0.0001347400    0.0000760700
  -0.0004778300    0.0000849100   -0.0002284800
  -0.0003528300    0.0001026600   -0.0003038500
  -0.0001447300   -0.0002385100    0.0002123300
   0.0008042100   -0.0001681000   -0.0001209800
   0.0000383700    0.0001648800    0.0008612800
   0.0002486200   -0.0005775900    0.0000640500
   0.0001568500   -0.0000439100   -0.0001314600
  -0.0000369300   -0.0000816300   -0.0007806700
  -0.0003571600    0.0003754700    0.0000249800
   0.0029957000   -0.0074726500   -0.0055157500
  -0.0062135900    0.0005004800   -0.0033223600
  -0.0111890700    0.0030856300   -0.0006056100
   0.0078900000   -0.0071064700    0.0075136300
   0.0044544300    0.0005582100    0.0017898100
   0.0009712200   -0.0014588300    0.0013267600
   0.0065953600    0.0025058700    0.0031509400
  -0.0070100200    0.0016409800    0.0016737000
   0.0005563300   -0.0024898400    0.0009869300
   0.0006351000    0.0004860100   -0.0039461500
  -0.0056542200   -0.0036216200    0.0039150900
   0.0030256500    0.0024454400    0.0016358800
   0.0046796600    0.0024292200    0.0045209500
   0.0002643000    0.0072630900    0.0048984500
  -0.0008285400   -0.0013287200   -0.0019025300
  -0.0008878000   -0.0025660500   -0.0046039500

2    
  0.0000039409279496   0.0099999425876434   0.0000336558007275
  -0.0025421900    0.0008301300   -0.0017331100
   0.0570718600   -0.5015704300    0.0399232200
   0.0020371700    0.0029777500   -0.0018738400
   0.0001177800   -0.0010395800   -0.0010452200
  -0.0002576200   -0.0000062300    0.0009280700
   0.0368335000    0.1247014900    0.0269633500
  -0.0012406500   -0.0000235000   -0.0011081800
  -0.0002236000   -0.0007321200    0.0008341300
  -0.0512880300    0.0568083000    0.0146762100
   0.0027737900    0.0442363000   -0.0210651000
  -0.0678338100    0.2596116800   -0.0810046500
   0.0202025700    0.0193955200    0.0152169300
  -0.0019901700   -0.0001759500    0.0036435000
   0.0029565100   -0.0045291600   -0.0031590400
  -0.0005601100    0.0005569800    0.0006904900
  -0.0004771200    0.0006160700    0.0001994600
   0.0004420000    0.0004116700   -0.0000003700
   0.0002108200    0.0004228600   -0.0007508500
   0.0004238200   -0.0000109400    0.0000916600
   0.0006521600    0.0005250300   -0.0004169400
   0.0001006100    0.0004208800   -0.0003484700
   0.0000226000    0.0002833700   -0.0004099200
   0.0004824500   -0.0001530200    0.0000647600
  -0.0004705300    0.0000704600   -0.0001736600
  -0.0002874700    0.0001718000   -0.0002825300
  -0.0001613100   -0.0002293900    0.0002686000
   0.0008285000   -0.0001712600   -0.0000829500
   0.0000794200    0.0001716600    0.0009942200
   0.0002580500   -0.0005938400    0.0000991500
   0.0001682100   -0.0000362500   -0.0001227200
  -0.0000424500   -0.0000940400   -0.0007510000
  -0.0003588500    0.0003702000    0.0000516800
   0.0024734800   -0.0070277100   -0.0054272800
  -0.0058986900    0.0003354200   -0.0034703300
  -0.0114338700    0.0032639700   -0.0006901000
   0.0082123200   -0.0076774700    0.0075435800
   0.0057575700    0.0002554800    0.0010360000
   0.0007398200   -0.0002492500    0.0007084400
   0.0062094900    0.0021519100    0.0028362500
  -0.0070192500    0.0016081300    0.0017260900
   0.0017548300   -0.0009195600   -0.0004544000
   0.0016658500    0.0013774900   -0.0025973600
  -0.0056472000   -0.0035304800    0.0038057000
   0.0031435000    0.0024433800    0.0014917900
   0.0048916400    0.0014391500    0.0048760600
   0.0002733200    0.0072918700    0.0047145600
  -0.0008072800   -0.0013148400   -0.0020961100
  -0.0022434400   -0.0026639600   -0.0043197900

2    
 -0.0000039409279496  -0.0099999425876434  -0.0000336558007275
  -0.0024396200    0.0008073100   -0.0017293200
  -0.0453909600    0.4941016700   -0.0350854600
   0.0020530900    0.0030001200   -0.0019035600
   0.0001342000   -0.0010723900   -0.0010491400
  -0.0001840000    0.0001840800    0.0008562200
  -0.0408807700   -0.1314120700   -0.0325004100
  -0.0012637900   -0.0000820600   -0.0010027400
  -0.0002139700   -0.0007465100    0.0009011400
   0.0479295600   -0.0552015800   -0.0164431900
  -0.0020467000   -0.0448610600    0.0183941200
   0.0632295900   -0.2464473100    0.0756712500
  -0.0216520800   -0.0195694500   -0.0170991700
  -0.0004092300    0.0010646600   -0.0046186700
  -0.0021966000    0.0047404500    0.0045456400
  -0.0006202100    0.0004672300    0.0008170100
  -0.0006949400    0.0003540700    0.0002368000
   0.0001699100    0.0004180500    0.0001109900
   0.0002640600    0.0002919900   -0.0007081300
   0.0004508200    0.0000796400    0.0000900300
   0.0006351700    0.0005239600   -0.0004064700
   0.0001165200    0.0004461700   -0.0003321700
   0.0000954300    0.0003894600   -0.0005199500
   0.0004653100   -0.0001312900    0.0000639800
  -0.0004708300    0.0000918800   -0.0002184900
  -0.0003466000    0.0000916600   -0.0003018900
  -0.0001401600   -0.0002381200    0.0002010900
   0.0007929100   -0.0001685800   -0.0001369100
   0.0000428700    0.0001544900    0.0008235000
   0.0002416700   -0.0005954600    0.0000499700
   0.0001541300   -0.0000381100   -0.0001203200
  -0.0000556600   -0.0000573400   -0.0007796100
  -0.0003568000    0.0003740500    0.0000251500
   0.0028610600   -0.0078694200   -0.0047967600
  -0.0060425800    0.0005331600   -0.0039698700
  -0.0111198400    0.0028564200    0.0000572800
   0.0082926000   -0.0068703900    0.0068225900
   0.0047029700    0.0004586900    0.0011107100
   0.0011706400   -0.0018636600    0.0024207300
   0.0064202400    0.0027319900    0.0031996100
  -0.0069332900    0.0015634200    0.0016775100
  -0.0002280600   -0.0020919900    0.0011827200
   0.0006106200    0.0006719500   -0.0038843300
  -0.0055711600   -0.0035677500    0.0039330000
   0.0030257300    0.0023123800    0.0015565900
   0.0051221800    0.0011344100    0.0048328800
   0.0002768900    0.0072787000    0.0049205700
  -0.0008281800   -0.0013321600   -0.0018886600
   0.0008278100   -0.0029053500   -0.0050058700

2    
  0.0000410304835054   0.0000315599614379   0.0099998660225154
  -0.0024808000    0.0008293100   -0.0018348000
   0.0371152700    0.0424483000   -0.5455860200
   0.0020502400    0.0029947700   -0.0019133300
   0.0001318400   -0.0010658200   -0.0010630500
  -0.0001603200    0.0000583200    0.0008646200
   0.0252843600    0.0258808400    0.1046915900
  -0.0012748900   -0.0000875300   -0.0010979600
  -0.0002206500   -0.0007152900    0.0008903500
  -0.0610253000    0.0160943000    0.0603201300
  -0.0388640900   -0.0316107600    0.2992693000
   0.0216196500   -0.0699484700    0.0690519900
  -0.0072958700   -0.0007176900   -0.0060334900
   0.0210543600    0.0243340500    0.0125722300
   0.0007372000   -0.0057257800   -0.0034769600
  -0.0005973600    0.0005214700    0.0008860900
  -0.0005679200    0.0006146100    0.0002469200
   0.0001410400    0.0004116600    0.0000772500
   0.0002629100    0.0003707700   -0.0006892800
   0.0004296000    0.0000072700    0.0001211200
   0.0006389400    0.0005381300   -0.0004488800
   0.0001322600    0.0004071700   -0.0003046500
   0.0000984900    0.0003952100   -0.0004220800
   0.0004435000   -0.0001132200    0.0000916700
  -0.0004707900    0.0000781800   -0.0001930200
  -0.0003267600    0.0001222100   -0.0002977300
  -0.0001560500   -0.0002358700    0.0002351700
   0.0008336100   -0.0001776900   -0.0000904400
   0.0000508300    0.0001060400    0.0009839800
   0.0002459300   -0.0006202500    0.0000660100
   0.0001602100   -0.0000301200   -0.0001050900
  -0.0000386000   -0.0000721700   -0.0007684700
  -0.0003585900    0.0003649700    0.0000344100
   0.0026136400   -0.0074045400   -0.0046518600
  -0.0060304200    0.0006594300   -0.0042114300
  -0.0112098600    0.0028805200   -0.0007638200
   0.0082507500   -0.0073765700    0.0076106100
   0.0055869200    0.0006696600    0.0012937700
   0.0014881100   -0.0007320000    0.0021499500
   0.0066866000    0.0027864500    0.0031641600
  -0.0070003600    0.0015274700    0.0016954000
  -0.0000798200   -0.0024723000    0.0017954600
   0.0014028700    0.0013340600   -0.0028528200
  -0.0056466800   -0.0035398500    0.0039348700
   0.0030777500    0.0023388300    0.0015656900
   0.0053890100    0.0004382600    0.0049745700
   0.0003084900    0.0072858600    0.0048022000
  -0.0008339200   -0.0012885300   -0.0020403000
  -0.0015953200   -0.0025636600   -0.0045440300

2    
 -0.0000410304835054  -0.0000315599614379  -0.0099998660225154
  -0.0025173800    0.0008259100   -0.0016413000
  -0.0301324500   -0.0333233400    0.5174595200
   0.0020224000    0.0029673400   -0.0018767400
   0.0001386100   -0.0010612100   -0.0010440200
  -0.0002711600    0.0001088400    0.0009281800
  -0.0273139000   -0.0310811800   -0.1075906700
  -0.0012199400   -0.0000123500   -0.0010027500
  -0.0002239900   -0.0007583300    0.0008546700
   0.0582299800   -0.0159476900   -0.0601662500
   0.0369967500    0.0281491200   -0.2811741500
  -0.0217046700    0.0689652800   -0.0665681300
   0.0063318500    0.0012307900    0.0044263900
  -0.0237624800   -0.0237988900   -0.0138649400
   0.0000614000    0.0059530400    0.0047932800
  -0.0005813200    0.0005021200    0.0006265100
  -0.0006032500    0.0003539700    0.0001919800
   0.0004738500    0.0004176100    0.0000354800
   0.0002087000    0.0003470900   -0.0007708100
   0.0004432300    0.0000645700    0.0000599800
   0.0006458600    0.0005140900   -0.0003756100
   0.0000866100    0.0004615100   -0.0003747900
   0.0000205500    0.0002786000   -0.0005090600
   0.0005043300   -0.0001690300    0.0000385400
  -0.0004745800    0.0000824700   -0.0002002400
  -0.0003094200    0.0001394500   -0.0002886100
  -0.0001475900   -0.0002350900    0.0002333000
   0.0007900000   -0.0001590200   -0.0001272400
   0.0000709700    0.0002230300    0.0008303000
   0.0002524200   -0.0005691600    0.0000854000
   0.0001642500   -0.0000479900   -0.0001392500
  -0.0000569800   -0.0000812100   -0.0007654400
  -0.0003524200    0.0003781900    0.0000414400
   0.0027160400   -0.0074929700   -0.0055722400
  -0.0059076100    0.0001990400   -0.0032314800
  -0.0113529600    0.0032430600    0.0001279700
   0.0082564700   -0.0071709800    0.0067580400
   0.0048669200    0.0000491600    0.0008531300
   0.0004120500   -0.0013699600    0.0009497900
   0.0059437900    0.0020985500    0.0028738800
  -0.0069525100    0.0016442800    0.0017107200
   0.0016168300   -0.0005295800   -0.0010936900
   0.0008724200    0.0007169000   -0.0036294900
  -0.0055697200   -0.0035591600    0.0038065400
   0.0030905100    0.0024188700    0.0014852200
   0.0046233700    0.0021112400    0.0047270500
   0.0002421400    0.0072866700    0.0048356100
  -0.0008015400   -0.0013578000   -0.0019420400
   0.0001736400   -0.0030058700   -0.0047839400

3    
  0.0099998898507493   0.0000036799846491   0.0000467913517119
  -0.0024699000    0.0008020600   -0.0017253900
   0.0007261800    0.0025948500   -0.0033336800
  -0.5039380700    0.0597810400    0.0393881000
   0.0001231100   -0.0010974600   -0.0010411000
  -0.0002177400    0.0000895500    0.0008554800
  -0.0001218500   -0.0017078800   -0.0013438300
   0.1243815100    0.0372364700    0.0269294000
  -0.0003118000   -0.0007763400    0.0009006400
  -0.0010649900    0.0000754100   -0.0007902400
   0.0004533700   -0.0007436700   -0.0002385300
   0.0000609300   -0.0005098500    0.0003665300
  -0.0005330000    0.0002568400   -0.0008074100
  -0.0012566700    0.0004119600   -0.0003817200
   0.0003874600    0.0000741400    0.0006522300
  -0.0005839000    0.0005262500    0.0008370500
  -0.0005875700    0.0004940500    0.0002400500
   0.0003126400    0.0004203600    0.0000732400
   0.0002453400    0.0003632300   -0.0007317800
   0.0004346300    0.0000246900    0.0001019300
   0.0006293900    0.0005271900   -0.0003909500
  -0.0040757500    0.0029979800   -0.0041127400
  -0.0014298900   -0.0008411900    0.0033342300
   0.0193628600    0.0210793900    0.0160089500
   0.2628757800   -0.0720252800   -0.0738068900
   0.0462665300    0.0025577200   -0.0274566700
   0.0550648400   -0.0471661000    0.0167687700
   0.0009251500   -0.0000613300   -0.0001305000
   0.0001005400    0.0001908700    0.0008545700
   0.0002410100   -0.0004496700    0.0000166600