nqpoint: 404    
npath: 4      
natom: 2      
phonon:
- q-position: [    0.0000000,    0.0000000,    0.0000000 ]
  distance:    0.0000000
  band:
  - # 1
    frequency:    0.0021799356
  - # 2
    frequency:    0.0021799356
  - # 3
    frequency:    0.0023806313
  - # 4
    frequency:    1.0120144647
  - # 5
    frequency:    1.0120144647
  - # 6
    frequency:    3.7477582555

- q-position: [    0.0050000,    0.0025000,    0.0075000 ]
  distance:    0.0018132
  band:
  - # 1
    frequency:    0.0402475240
  - # 2
    frequency:    0.0405303991
  - # 3
    frequency:    0.0606117958
  - # 4
    frequency:    1.0155448855
  - # 5
    frequency:    1.0161353702
  - # 6
    frequency:    3.7486133721

- q-position: [    0.0100000,    0.0050000,    0.0150000 ]
  distance:    0.0036265
  band:
  - # 1
    frequency:    0.0801154472
  - # 2
    frequency:    0.0805635543
  - # 3
    frequency:    0.1210883309
  - # 4
    frequency:    1.0260521787
  - # 5
    frequency:    1.0284001172
  - # 6
    frequency:    3.7511702719

- q-position: [    0.0150000,    0.0075000,    0.0225000 ]
  distance:    0.0054397
  band:
  - # 1
    frequency:    0.1194456105
  - # 2
    frequency:    0.1198420134
  - # 3
    frequency:    0.1814513633
  - # 4
    frequency:    1.0432899918
  - # 5
    frequency:    1.0485205402
  - # 6
    frequency:    3.7554037215

- q-position: [    0.0200000,    0.0100000,    0.0300000 ]
  distance:    0.0072529
  band:
  - # 1
    frequency:    0.1580016370
  - # 2
    frequency:    0.1580656963
  - # 3
    frequency:    0.2416274004
  - # 4
    frequency:    1.0668657204
  - # 5
    frequency:    1.0760356537
  - # 6
    frequency:    3.7612720531

- q-position: [    0.0250000,    0.0125000,    0.0375000 ]
  distance:    0.0090661
  band:
  - # 1
    frequency:    0.1950436427
  - # 2
    frequency:    0.1956150480
  - # 3
    frequency:    0.3015551009
  - # 4
    frequency:    1.0962655535
  - # 5
    frequency:    1.1103403756
  - # 6
    frequency:    3.7687177356

- q-position: [    0.0300000,    0.0150000,    0.0450000 ]
  distance:    0.0108794
  band:
  - # 1
    frequency:    0.2306842281
  - # 2
    frequency:    0.2321774931
  - # 3
    frequency:    0.3611778451
  - # 4
    frequency:    1.1308856268
  - # 5
    frequency:    1.1507234968
  - # 6
    frequency:    3.7776681554

- q-position: [    0.0350000,    0.0175000,    0.0525000 ]
  distance:    0.0126926
  band:
  - # 1
    frequency:    0.2649791196
  - # 2
    frequency:    0.2676333645
  - # 3
    frequency:    0.4204427532
  - # 4
    frequency:    1.1700656291
  - # 5
    frequency:    1.1964104489
  - # 6
    frequency:    3.7880365867

- q-position: [    0.0400000,    0.0200000,    0.0600000 ]
  distance:    0.0145058
  band:
  - # 1
    frequency:    0.2979801855
  - # 2
    frequency:    0.3019683855
  - # 3
    frequency:    0.4793004188
  - # 4
    frequency:    1.2131210690
  - # 5
    frequency:    1.2466051217
  - # 6
    frequency:    3.7997233309

- q-position: [    0.0450000,    0.0225000,    0.0675000 ]
  distance:    0.0163191
  band:
  - # 1
    frequency:    0.3297752517
  - # 2
    frequency:    0.3351966572
  - # 3
    frequency:    0.5377047856
  - # 4
    frequency:    1.2593710980
  - # 5
    frequency:    1.3005255938
  - # 6
    frequency:    3.8126169981

- q-position: [    0.0500000,    0.0250000,    0.0750000 ]
  distance:    0.0181323
  band:
  - # 1
    frequency:    0.3604673474
  - # 2
    frequency:    0.3673486637
  - # 3
    frequency:    0.5956130764
  - # 4
    frequency:    1.3081600603
  - # 5
    frequency:    1.3574307472
  - # 6
    frequency:    3.8265959030

- q-position: [    0.0550000,    0.0275000,    0.0825000 ]
  distance:    0.0199455
  band:
  - # 1
    frequency:    0.3901596364
  - # 2
    frequency:    0.3984617458
  - # 3
    frequency:    0.6529857435
  - # 4
    frequency:    1.3588723139
  - # 5
    frequency:    1.4166371767
  - # 6
    frequency:    3.8415295484

- q-position: [    0.0600000,    0.0300000,    0.0900000 ]
  distance:    0.0217587
  band:
  - # 1
    frequency:    0.4189461591
  - # 2
    frequency:    0.4285735337
  - # 3
    frequency:    0.7097864163
  - # 4
    frequency:    1.4109409427
  - # 5
    frequency:    1.4775276269
  - # 6
    frequency:    3.8572801654

- q-position: [    0.0650000,    0.0325000,    0.0975000 ]
  distance:    0.0235720
  band:
  - # 1
    frequency:    0.4469073411
  - # 2
    frequency:    0.4577181022
  - # 3
    frequency:    0.7659818242
  - # 4
    frequency:    1.4638515763
  - # 5
    frequency:    1.5395530552
  - # 6
    frequency:    3.8737042844

- q-position: [    0.0700000,    0.0350000,    0.1050000 ]
  distance:    0.0253852
  band:
  - # 1
    frequency:    0.4741088500
  - # 2
    frequency:    0.4859242649
  - # 3
    frequency:    0.8215416781
  - # 4
    frequency:    1.5171426980
  - # 5
    frequency:    1.6022304989
  - # 6
    frequency:    3.8906543095

- q-position: [    0.0750000,    0.0375000,    0.1125000 ]
  distance:    0.0271984
  band:
  - # 1
    frequency:    0.5006025051
  - # 2
    frequency:    0.5132153486
  - # 3
    frequency:    0.8764385002
  - # 4
    frequency:    1.5704036919
  - # 5
    frequency:    1.6651385633
  - # 6
    frequency:    3.9079800722

- q-position: [    0.0800000,    0.0400000,    0.1200000 ]
  distance:    0.0290116
  band:
  - # 1
    frequency:    0.5264282500
  - # 2
    frequency:    0.5396098714
  - # 3
    frequency:    0.9306474000
  - # 4
    frequency:    1.6232716225
  - # 5
    frequency:    1.7279118471
  - # 6
    frequency:    3.9255303447

- q-position: [    0.0850000,    0.0425000,    0.1275000 ]
  distance:    0.0308249
  band:
  - # 1
    frequency:    0.5516165321
  - # 2
    frequency:    0.5651226890
  - # 3
    frequency:    0.9841457970
  - # 4
    frequency:    1.6754274550
  - # 5
    frequency:    1.7902351557
  - # 6
    frequency:    3.9431542919

- q-position: [    0.0900000,    0.0450000,    0.1350000 ]
  distance:    0.0326381
  band:
  - # 1
    frequency:    0.5761906927
  - # 2
    frequency:    0.5897663125
  - # 3
    frequency:    1.0369130949
  - # 4
    frequency:    1.7265921794
  - # 5
    frequency:    1.8518379917
  - # 6
    frequency:    3.9607028489

- q-position: [    0.0950000,    0.0475000,    0.1425000 ]
  distance:    0.0344513
  band:
  - # 1
    frequency:    0.6001691624
  - # 2
    frequency:    0.6135522132
  - # 3
    frequency:    1.0889303169
  - # 4
    frequency:    1.7765231128
  - # 5
    frequency:    1.9124895644
  - # 6
    frequency:    3.9780300111

- q-position: [    0.1000000,    0.0500000,    0.1500000 ]
  distance:    0.0362646
  band:
  - # 1
    frequency:    0.6235673675
  - # 2
    frequency:    0.6364920135
  - # 3
    frequency:    1.1401797092
  - # 4
    frequency:    1.8250105204
  - # 5
    frequency:    1.9719944002
  - # 6
    frequency:    3.9949940280

- q-position: [    0.1050000,    0.0525000,    0.1575000 ]
  distance:    0.0380778
  band:
  - # 1
    frequency:    0.6463993257
  - # 2
    frequency:    0.6585985124
  - # 3
    frequency:    1.1906443235
  - # 4
    frequency:    1.8718746102
  - # 5
    frequency:    2.0301885480
  - # 6
    frequency:    4.0114584947

- q-position: [    0.1100000,    0.0550000,    0.1650000 ]
  distance:    0.0398910
  band:
  - # 1
    frequency:    0.6686789407
  - # 2
    frequency:    0.6798865303
  - # 3
    frequency:    1.2403075891
  - # 4
    frequency:    1.9169629051
  - # 5
    frequency:    2.0869363260
  - # 6
    frequency:    4.0272933365

- q-position: [    0.1150000,    0.0575000,    0.1725000 ]
  distance:    0.0417042
  band:
  - # 1
    frequency:    0.6904210204
  - # 2
    frequency:    0.7003735732
  - # 3
    frequency:    1.2891528848
  - # 4
    frequency:    1.9601479649
  - # 5
    frequency:    2.1421275351
  - # 6
    frequency:    4.0423756868

- q-position: [    0.1200000,    0.0600000,    0.1800000 ]
  distance:    0.0435175
  band:
  - # 1
    frequency:    0.7116420483
  - # 2
    frequency:    0.7200803268
  - # 3
    frequency:    1.3371631215
  - # 4
    frequency:    2.0013254191
  - # 5
    frequency:    2.1956750603
  - # 6
    frequency:    4.0565906575

- q-position: [    0.1250000,    0.0625000,    0.1875000 ]
  distance:    0.0453307
  band:
  - # 1
    frequency:    0.7323607358
  - # 2
    frequency:    0.7390309920
  - # 3
    frequency:    1.3843203446
  - # 4
    frequency:    2.0404122642
  - # 5
    frequency:    2.2475127849
  - # 6
    frequency:    4.0698320043

- q-position: [    0.1300000,    0.0650000,    0.1950000 ]
  distance:    0.0471439
  band:
  - # 1
    frequency:    0.7525983788
  - # 2
    frequency:    0.7572534773
  - # 3
    frequency:    1.4306053684
  - # 4
    frequency:    2.0773453826
  - # 5
    frequency:    2.2975937499
  - # 6
    frequency:    4.0820026898

- q-position: [    0.1350000,    0.0675000,    0.2025000 ]
  distance:    0.0489572
  band:
  - # 1
    frequency:    0.7723790387
  - # 2
    frequency:    0.7747794588
  - # 3
    frequency:    1.4759974494
  - # 4
    frequency:    2.1120802392
  - # 5
    frequency:    2.3458884975
  - # 6
    frequency:    4.0930153489

- q-position: [    0.1400000,    0.0700000,    0.2100000 ]
  distance:    0.0507704
  band:
  - # 1
    frequency:    0.7916443189
  - # 2
    frequency:    0.7917295633
  - # 3
    frequency:    1.5204740104
  - # 4
    frequency:    2.1445897210
  - # 5
    frequency:    2.3923835502
  - # 6
    frequency:    4.1027926608

- q-position: [    0.1450000,    0.0725000,    0.2175000 ]
  distance:    0.0525836
  band:
  - # 1
    frequency:    0.8078869735
  - # 2
    frequency:    0.8106794622
  - # 3
    frequency:    1.5640104212
  - # 4
    frequency:    2.1748630849
  - # 5
    frequency:    2.4370799812
  - # 6
    frequency:    4.1112676317

- q-position: [    0.1500000,    0.0750000,    0.2250000 ]
  distance:    0.0543968
  band:
  - # 1
    frequency:    0.8235495949
  - # 2
    frequency:    0.8292606463
  - # 3
    frequency:    1.6065798449
  - # 4
    frequency:    2.2029049874
  - # 5
    frequency:    2.4799920415
  - # 6
    frequency:    4.1183837947

- q-position: [    0.1550000,    0.0775000,    0.2325000 ]
  distance:    0.0562101
  band:
  - # 1
    frequency:    0.8386772390
  - # 2
    frequency:    0.8475070455
  - # 3
    frequency:    1.6481531561
  - # 4
    frequency:    2.2287345714
  - # 5
    frequency:    2.5211458162
  - # 6
    frequency:    4.1240953294

- q-position: [    0.1600000,    0.0800000,    0.2400000 ]
  distance:    0.0580233
  band:
  - # 1
    frequency:    0.8533173825
  - # 2
    frequency:    0.8654541140
  - # 3
    frequency:    1.6886989355
  - # 4
    frequency:    2.2523845897
  - # 5
    frequency:    2.5605778878
  - # 6
    frequency:    4.1283671072

- q-position: [    0.1650000,    0.0825000,    0.2475000 ]
  distance:    0.0598365
  band:
  - # 1
    frequency:    0.8675193799
  - # 2
    frequency:    0.8831382366
  - # 3
    frequency:    1.7281835448
  - # 4
    frequency:    2.2739005496
  - # 5
    frequency:    2.5983339896
  - # 6
    frequency:    4.1311746656

- q-position: [    0.1700000,    0.0850000,    0.2550000 ]
  distance:    0.0616497
  band:
  - # 1
    frequency:    0.8813338464
  - # 2
    frequency:    0.9005960505
  - # 3
    frequency:    1.7665712825
  - # 4
    frequency:    2.2933398632
  - # 5
    frequency:    2.6344676408
  - # 6
    frequency:    4.1325041144

- q-position: [    0.1750000,    0.0875000,    0.2625000 ]
  distance:    0.0634630
  band:
  - # 1
    frequency:    0.8948119797
  - # 2
    frequency:    0.9178636995
  - # 3
    frequency:    1.8038246196
  - # 4
    frequency:    2.3107709914
  - # 5
    frequency:    2.6690387574
  - # 6
    frequency:    4.1323519773

- q-position: [    0.1800000,    0.0900000,    0.2700000 ]
  distance:    0.0652762
  band:
  - # 1
    frequency:    0.9080048289
  - # 2
    frequency:    0.9349760389
  - # 3
    frequency:    1.8399045112
  - # 4
    frequency:    2.3262725745
  - # 5
    frequency:    2.7021122410
  - # 6
    frequency:    4.1307249695

- q-position: [    0.1850000,    0.0925000,    0.2775000 ]
  distance:    0.0670894
  band:
  - # 1
    frequency:    0.9209625266
  - # 2
    frequency:    0.9519658121
  - # 3
    frequency:    1.8747707765
  - # 4
    frequency:    2.3399325378
  - # 5
    frequency:    2.7337565515
  - # 6
    frequency:    4.1276397143

- q-position: [    0.1900000,    0.0950000,    0.2850000 ]
  distance:    0.0689027
  band:
  - # 1
    frequency:    0.9337334991
  - # 2
    frequency:    0.9688628213
  - # 3
    frequency:    1.9083825359
  - # 4
    frequency:    2.3518471703
  - # 5
    frequency:    2.7640422769
  - # 6
    frequency:    4.1231223978

- q-position: [    0.1950000,    0.0975000,    0.2925000 ]
  distance:    0.0707159
  band:
  - # 1
    frequency:    0.9463636697
  - # 2
    frequency:    0.9856931181
  - # 3
    frequency:    1.9406986924
  - # 4
    frequency:    2.3621201692
  - # 5
    frequency:    2.7930407175
  - # 6
    frequency:    4.1172083628

- q-position: [    0.2000000,    0.1000000,    0.3000000 ]
  distance:    0.0725291
  band:
  - # 1
    frequency:    0.9588956776
  - # 2
    frequency:    1.0024782361
  - # 3
    frequency:    1.9716784403
  - # 4
    frequency:    2.3708616483
  - # 5
    frequency:    2.8208225056
  - # 6
    frequency:    4.1099416414

- q-position: [    0.2050000,    0.1025000,    0.3075000 ]
  distance:    0.0743423
  band:
  - # 1
    frequency:    0.9713681290
  - # 2
    frequency:    1.0192344922
  - # 3
    frequency:    2.0012817822
  - # 4
    frequency:    2.3781871094
  - # 5
    frequency:    2.8474562878
  - # 6
    frequency:    4.1013744251

- q-position: [    0.2100000,    0.1050000,    0.3150000 ]
  distance:    0.0761556
  band:
  - # 1
    frequency:    0.9838149023
  - # 2
    frequency:    1.0359723774
  - # 3
    frequency:    2.0294700371
  - # 4
    frequency:    2.3842163756
  - # 5
    frequency:    2.8730074937
  - # 6
    frequency:    4.0915664747

- q-position: [    0.2150000,    0.1075000,    0.3225000 ]
  distance:    0.0779688
  band:
  - # 1
    frequency:    0.9962645283
  - # 2
    frequency:    1.0526960609
  - # 3
    frequency:    2.0562063211
  - # 4
    frequency:    2.3890724894
  - # 5
    frequency:    2.8975372181
  - # 6
    frequency:    4.0805844672

- q-position: [    0.2200000,    0.1100000,    0.3300000 ]
  distance:    0.0797820
  band:
  - # 1
    frequency:    1.0087396637
  - # 2
    frequency:    1.0694030212
  - # 3
    frequency:    2.0814559868
  - # 4
    frequency:    2.3928805768
  - # 5
    frequency:    2.9211012379
  - # 6
    frequency:    4.0685012860

- q-position: [    0.2250000,    0.1125000,    0.3375000 ]
  distance:    0.0815953
  band:
  - # 1
    frequency:    1.0212566760
  - # 2
    frequency:    1.0860838217
  - # 3
    frequency:    2.1051870140
  - # 4
    frequency:    2.3957666850
  - # 5
    frequency:    2.9437491766
  - # 6
    frequency:    4.0553952554

- q-position: [    0.2300000,    0.1150000,    0.3450000 ]
  distance:    0.0834085
  band:
  - # 1
    frequency:    1.0338253552
  - # 2
    frequency:    1.1027220366
  - # 3
    frequency:    2.1273703495
  - # 4
    frequency:    2.3978565968
  - # 5
    frequency:    2.9655238230
  - # 6
    frequency:    4.0413493302

- q-position: [    0.2350000,    0.1175000,    0.3525000 ]
  distance:    0.0852217
  band:
  - # 1
    frequency:    1.0464487639
  - # 2
    frequency:    1.1192943328
  - # 3
    frequency:    2.1479802050
  - # 4
    frequency:    2.3992746332
  - # 5
    frequency:    2.9864605946
  - # 6
    frequency:    4.0264502514

- q-position: [    0.2400000,    0.1200000,    0.3600000 ]
  distance:    0.0870349
  band:
  - # 1
    frequency:    1.0591232327
  - # 2
    frequency:    1.1357707064
  - # 3
    frequency:    2.1669943265
  - # 4
    frequency:    2.4001424527
  - # 5
    frequency:    3.0065871235
  - # 6
    frequency:    4.0107876873

- q-position: [    0.2450000,    0.1225000,    0.3675000 ]
  distance:    0.0888482
  band:
  - # 1
    frequency:    1.0718385058
  - # 2
    frequency:    1.1521148668
  - # 3
    frequency:    2.1843942612
  - # 4
    frequency:    2.4005778600
  - # 5
    frequency:    3.0259229294
  - # 6
    frequency:    3.9944533860

- q-position: [    0.2500000,    0.1250000,    0.3750000 ]
  distance:    0.0906614
  band:
  - # 1
    frequency:    1.0845780331
  - # 2
    frequency:    1.1682847588
  - # 3
    frequency:    2.2001656474
  - # 4
    frequency:    2.4006936388
  - # 5
    frequency:    3.0444791276
  - # 6
    frequency:    3.9775403736

- q-position: [    0.2550000,    0.1275000,    0.3825000 ]
  distance:    0.0924746
  band:
  - # 1
    frequency:    1.0973194035
  - # 2
    frequency:    1.1842332088
  - # 3
    frequency:    2.2142985569
  - # 4
    frequency:    2.4005964243
  - # 5
    frequency:    3.0622581135
  - # 6
    frequency:    3.9601422413

- q-position: [    0.2600000,    0.1300000,    0.3900000 ]
  distance:    0.0942878
  band:
  - # 1
    frequency:    1.1100349071
  - # 2
    frequency:    1.1999086760
  - # 3
    frequency:    2.2267879122
  - # 4
    frequency:    2.4003856344
  - # 5
    frequency:    3.0792531563
  - # 6
    frequency:    3.9423525744

- q-position: [    0.2650000,    0.1325000,    0.3975000 ]
  distance:    0.0961011
  band:
  - # 1
    frequency:    1.1226922104
  - # 2
    frequency:    1.2152560926
  - # 3
    frequency:    2.2376339953
  - # 4
    frequency:    2.4001524781
  - # 5
    frequency:    3.0954478342
  - # 6
    frequency:    3.9242645834

- q-position: [    0.2700000,    0.1350000,    0.4050000 ]
  distance:    0.0979143
  band:
  - # 1
    frequency:    1.1352551249
  - # 2
    frequency:    1.2302177709
  - # 3
    frequency:    2.2468430455
  - # 4
    frequency:    2.3999790626
  - # 5
    frequency:    3.1108152550
  - # 6
    frequency:    3.9059710013

- q-position: [    0.2750000,    0.1375000,    0.4125000 ]
  distance:    0.0997275
  band:
  - # 1
    frequency:    1.1476844443
  - # 2
    frequency:    1.2447343590
  - # 3
    frequency:    2.2544279309
  - # 4
    frequency:    2.3999376191
  - # 5
    frequency:    3.1253170158
  - # 6
    frequency:    3.8875643106

- q-position: [    0.2800000,    0.1400000,    0.4200000 ]
  distance:    0.1015408
  band:
  - # 1
    frequency:    1.1599388256
  - # 2
    frequency:    1.2587458265
  - # 3
    frequency:    2.2604088586
  - # 4
    frequency:    2.4000898695
  - # 5
    frequency:    3.1389018882
  - # 6
    frequency:    3.8691373527

- q-position: [    0.2850000,    0.1425000,    0.4275000 ]
  distance:    0.1033540
  band:
  - # 1
    frequency:    1.1719756874
  - # 2
    frequency:    1.2721924635
  - # 3
    frequency:    2.2648140697
  - # 4
    frequency:    2.4004865515
  - # 5
    frequency:    3.1515042491
  - # 6
    frequency:    3.8507843448

- q-position: [    0.2900000,    0.1450000,    0.4350000 ]
  distance:    0.1051672
  band:
  - # 1
    frequency:    1.1837520972
  - # 2
    frequency:    1.2850158792
  - # 3
    frequency:    2.2676804556
  - # 4
    frequency:    2.4011671214
  - # 5
    frequency:    3.1630423356
  - # 6
    frequency:    3.8326022873

- q-position: [    0.2950000,    0.1475000,    0.4425000 ]
  distance:    0.1069804
  band:
  - # 1
    frequency:    1.1952256235
  - # 2
    frequency:    1.2971599876
  - # 3
    frequency:    2.2690540249
  - # 4
    frequency:    2.4021596455
  - # 5
    frequency:    3.1734164753
  - # 6
    frequency:    3.8146926713

- q-position: [    0.3000000,    0.1500000,    0.4500000 ]
  distance:    0.1087937
  band:
  - # 1
    frequency:    1.2063551288
  - # 2
    frequency:    1.3085719706
  - # 3
    frequency:    2.2689901513
  - # 4
    frequency:    2.4034808916
  - # 5
    frequency:    3.1825075436
  - # 6
    frequency:    3.7971632905

- q-position: [    0.3050000,    0.1525000,    0.4575000 ]
  distance:    0.1106069
  band:
  - # 1
    frequency:    1.2171014851
  - # 2
    frequency:    1.3192032107
  - # 3
    frequency:    2.2675535461
  - # 4
    frequency:    2.4051366218
  - # 5
    frequency:    3.1901760269
  - # 6
    frequency:    3.7801298249

- q-position: [    0.3100000,    0.1550000,    0.4650000 ]
  distance:    0.1124201
  band:
  - # 1
    frequency:    1.2274281963
  - # 2
    frequency:    1.3290101871
  - # 3
    frequency:    2.2648179136
  - # 4
    frequency:    2.4071220855
  - # 5
    frequency:    3.1962622175
  - # 6
    frequency:    3.7637166972

- q-position: [    0.3150000,    0.1575000,    0.4725000 ]
  distance:    0.1142334
  band:
  - # 1
    frequency:    1.2373019194
  - # 2
    frequency:    1.3379553253
  - # 3
    frequency:    2.2608652752
  - # 4
    frequency:    2.4094227013
  - # 5
    frequency:    3.2005881990
  - # 6
    frequency:    3.7480565434

- q-position: [    0.3200000,    0.1600000,    0.4800000 ]
  distance:    0.1160466
  band:
  - # 1
    frequency:    1.2466928803
  - # 2
    frequency:    1.3460077945
  - # 3
    frequency:    2.2557849717
  - # 4
    frequency:    2.4120149134
  - # 5
    frequency:    3.2029623475
  - # 6
    frequency:    3.7332875546

- q-position: [    0.3250000,    0.1625000,    0.4875000 ]
  distance:    0.1178598
  band:
  - # 1
    frequency:    1.2555751847
  - # 2
    frequency:    1.3531442402
  - # 3
    frequency:    2.2496723808
  - # 4
    frequency:    2.4148671986
  - # 5
    frequency:    3.2031869556
  - # 6
    frequency:    3.7195480347

- q-position: [    0.3300000,    0.1650000,    0.4950000 ]
  distance:    0.1196730
  band:
  - # 1
    frequency:    1.2639270326
  - # 2
    frequency:    1.3593494379
  - # 3
    frequency:    2.2426274106
  - # 4
    frequency:    2.4179411984
  - # 5
    frequency:    3.2010691737
  - # 6
    frequency:    3.7069679181

- q-position: [    0.3350000,    0.1675000,    0.5025000 ]
  distance:    0.1214863
  band:
  - # 1
    frequency:    1.2717308444
  - # 2
    frequency:    1.3646168513
  - # 3
    frequency:    2.2347528448
  - # 4
    frequency:    2.4211929439
  - # 5
    frequency:    3.1964346938
  - # 6
    frequency:    3.6956577435

- q-position: [    0.3400000,    0.1700000,    0.5100000 ]
  distance:    0.1232995
  band:
  - # 1
    frequency:    1.2789733110
  - # 2
    frequency:    1.3689490719
  - # 3
    frequency:    2.2261526296
  - # 4
    frequency:    2.4245741410
  - # 5
    frequency:    3.1891425888
  - # 6
    frequency:    3.6856965886

- q-position: [    0.3450000,    0.1725000,    0.5175000 ]
  distance:    0.1251127
  band:
  - # 1
    frequency:    1.2856453846
  - # 2
    frequency:    1.3723581187
  - # 3
    frequency:    2.2169301921
  - # 4
    frequency:    2.4280334813
  - # 5
    frequency:    3.1790988356
  - # 6
    frequency:    3.6771213532

- q-position: [    0.3500000,    0.1750000,    0.5250000 ]
  distance:    0.1269259
  band:
  - # 1
    frequency:    1.2917422197
  - # 2
    frequency:    1.3748655695
  - # 3
    frequency:    2.2071868791
  - # 4
    frequency:    2.4315179469
  - # 5
    frequency:    3.1662658117
  - # 6
    frequency:    3.6699200233

- q-position: [    0.3550000,    0.1775000,    0.5325000 ]
  distance:    0.1287392
  band:
  - # 1
    frequency:    1.2972630817
  - # 2
    frequency:    1.3765025044
  - # 3
    frequency:    2.1970205926
  - # 4
    frequency:    2.4349740771
  - # 5
    frequency:    3.1506658011
  - # 6
    frequency:    3.6640308124

- q-position: [    0.3600000,    0.1800000,    0.5400000 ]
  distance:    0.1305524
  band:
  - # 1
    frequency:    1.3022112310
  - # 2
    frequency:    1.3773092371
  - # 3
    frequency:    2.1865246844
  - # 4
    frequency:    2.4383491704
  - # 5
    frequency:    3.1323781069
  - # 6
    frequency:    3.6593475265

- q-position: [    0.3650000,    0.1825000,    0.5475000 ]
  distance:    0.1323656
  band:
  - # 1
    frequency:    1.3065937929
  - # 2
    frequency:    1.3773348239
  - # 3
    frequency:    2.1757871536
  - # 4
    frequency:    2.4415923990
  - # 5
    frequency:    3.1115310583
  - # 6
    frequency:    3.6557298205

- q-position: [    0.3700000,    0.1850000,    0.5550000 ]
  distance:    0.1341789
  band:
  - # 1
    frequency:    1.3104216186
  - # 2
    frequency:    1.3766363448
  - # 3
    frequency:    2.1648901673
  - # 4
    frequency:    2.4446558157
  - # 5
    frequency:    3.0882912715
  - # 6
    frequency:    3.6530159556

- q-position: [    0.3750000,    0.1875000,    0.5625000 ]
  distance:    0.1359921
  band:
  - # 1
    frequency:    1.3137091409
  - # 2
    frequency:    1.3752779624
  - # 3
    frequency:    2.1539099068
  - # 4
    frequency:    2.4474952410
  - # 5
    frequency:    3.0628526286
  - # 6
    frequency:    3.6510355723

- q-position: [    0.3800000,    0.1900000,    0.5700000 ]
  distance:    0.1378053
  band:
  - # 1
    frequency:    1.3164742247
  - # 2
    frequency:    1.3733297789
  - # 3
    frequency:    2.1429167172
  - # 4
    frequency:    2.4500710192
  - # 5
    frequency:    3.0354267881
  - # 6
    frequency:    3.6496206527

- q-position: [    0.3850000,    0.1925000,    0.5775000 ]
  distance:    0.1396185
  band:
  - # 1
    frequency:    1.3187380114
  - # 2
    frequency:    1.3708665187
  - # 3
    frequency:    2.1319755219
  - # 4
    frequency:    2.4523486383
  - # 5
    frequency:    3.0062361158
  - # 6
    frequency:    3.6486137786

- q-position: [    0.3900000,    0.1950000,    0.5850000 ]
  distance:    0.1414318
  band:
  - # 1
    frequency:    1.3205247537
  - # 2
    frequency:    1.3679660767
  - # 3
    frequency:    2.1211464478
  - # 4
    frequency:    2.4542992120
  - # 5
    frequency:    2.9755091298
  - # 6
    frequency:    3.6478735886

- q-position: [    0.3950000,    0.1975000,    0.5925000 ]
  distance:    0.1432450
  band:
  - # 1
    frequency:    1.3218616365
  - # 2
    frequency:    1.3647079788
  - # 3
    frequency:    2.1104855939
  - # 4
    frequency:    2.4558998249
  - # 5
    frequency:    2.9434780736
  - # 6
    frequency:    3.6472778243

- q-position: [    0.4000000,    0.2000000,    0.6000000 ]
  distance:    0.1450582
  band:
  - # 1
    frequency:    1.3227785788
  - # 2
    frequency:    1.3611718051
  - # 3
    frequency:    2.1000458709
  - # 4
    frequency:    2.4571337429
  - # 5
    frequency:    2.9103780430
  - # 6
    frequency:    3.6467245403

- q-position: [    0.4050000,    0.2025000,    0.6075000 ]
  distance:    0.1468715
  band:
  - # 1
    frequency:    1.3233080117
  - # 2
    frequency:    1.3574356268
  - # 3
    frequency:    2.0898778332
  - # 4
    frequency:    2.4579904966
  - # 5
    frequency:    2.8764471067
  - # 6
    frequency:    3.6461320457

- q-position: [    0.4100000,    0.2050000,    0.6150000 ]
  distance:    0.1486847
  band:
  - # 1
    frequency:    1.3234846277
  - # 2
    frequency:    1.3535745097
  - # 3
    frequency:    2.0800304249
  - # 4
    frequency:    2.4584658418
  - # 5
    frequency:    2.8419269583
  - # 6
    frequency:    3.6454380409

- q-position: [    0.4150000,    0.2075000,    0.6225000 ]
  distance:    0.1504979
  band:
  - # 1
    frequency:    1.3233450966
  - # 2
    frequency:    1.3496591268
  - # 3
    frequency:    2.0705515620
  - # 4
    frequency:    2.4585616078
  - # 5
    frequency:    2.8070637681
  - # 6
    frequency:    3.6445982894

- q-position: [    0.4200000,    0.2100000,    0.6300000 ]
  distance:    0.1523111
  band:
  - # 1
    frequency:    1.3229277464
  - # 2
    frequency:    1.3457545256
  - # 3
    frequency:    2.0614884766
  - # 4
    frequency:    2.4582854404
  - # 5
    frequency:    2.7721090124
  - # 6
    frequency:    3.6435850515

- q-position: [    0.4250000,    0.2125000,    0.6375000 ]
  distance:    0.1541244
  band:
  - # 1
    frequency:    1.3222722059
  - # 2
    frequency:    1.3419190834
  - # 3
    frequency:    2.0528877527
  - # 4
    frequency:    2.4576504502
  - # 5
    frequency:    2.7373201465
  - # 6
    frequency:    3.6423854223

- q-position: [    0.4300000,    0.2150000,    0.6450000 ]
  distance:    0.1559376
  band:
  - # 1
    frequency:    1.3214190104
  - # 2
    frequency:    1.3382036820
  - # 3
    frequency:    2.0447949875
  - # 4
    frequency:    2.4566747762
  - # 5
    frequency:    2.7029610491
  - # 6
    frequency:    3.6409996549

- q-position: [    0.4350000,    0.2175000,    0.6525000 ]
  distance:    0.1577508
  band:
  - # 1
    frequency:    1.3204091716
  - # 2
    frequency:    1.3346511269
  - # 3
    frequency:    2.0372540245
  - # 4
    frequency:    2.4553810743
  - # 5
    frequency:    2.6693022031
  - # 6
    frequency:    3.6394395118

- q-position: [    0.4400000,    0.2200000,    0.6600000 ]
  distance:    0.1595640
  band:
  - # 1
    frequency:    1.3192837153
  - # 2
    frequency:    1.3312958312
  - # 3
    frequency:    2.0303057178
  - # 4
    frequency:    2.4537959427
  - # 5
    frequency:    2.6366205981
  - # 6
    frequency:    3.6377266647

- q-position: [    0.4450000,    0.2225000,    0.6675000 ]
  distance:    0.1613773
  band:
  - # 1
    frequency:    1.3180831930
  - # 2
    frequency:    1.3281637801
  - # 3
    frequency:    2.0239862175
  - # 4
    frequency:    2.4519492946
  - # 5
    frequency:    2.6051993396
  - # 6
    frequency:    3.6358911481

- q-position: [    0.4500000,    0.2250000,    0.6750000 ]
  distance:    0.1631905
  band:
  - # 1
    frequency:    1.3168471743
  - # 2
    frequency:    1.3252727864
  - # 3
    frequency:    2.0183248107
  - # 4
    frequency:    2.4498736895
  - # 5
    frequency:    2.5753269302
  - # 6
    frequency:    3.6339698672

- q-position: [    0.4550000,    0.2275000,    0.6825000 ]
  distance:    0.1650037
  band:
  - # 1
    frequency:    1.3156137296
  - # 2
    frequency:    1.3226330394
  - # 3