14.400
  23.20494   0.00000   0.00000   0.00000  23.20494   0.00000  -0.00000   0.00000  23.20494
   4.78575   0.00000   0.00000   0.00000   4.78575   0.00000   0.00000   0.00000   4.78575
  -4.78426   0.00000   0.00000   0.00000  -4.78426   0.00000   0.00000   0.00000  -4.78425
