128  
2    

1    
  0.0000000000000000   0.0070710678118655   0.0070710678118655
   0.0000000000   -0.0188248800   -0.0188248800
  -0.0000000000    0.0039333900    0.0039333900
   0.0000000000    0.0007475100    0.0007475100
   0.0000000000    0.0038914300    0.0038914300
   0.0036507900   -0.0003727100    0.0002679600
   0.0002431500    0.0001715000    0.0004287700
  -0.0002428200    0.0004262800    0.0001725100
  -0.0036338900    0.0002718300   -0.0003690300
   0.0004290100   -0.0000746800    0.0003183600
  -0.0000010700   -0.0000711700   -0.0000707600
  -0.0004290100    0.0003183600   -0.0000746800
   0.0000010700   -0.0000707600   -0.0000711700
   0.0036338900   -0.0003690300    0.0002718300
  -0.0036507900    0.0002679600   -0.0003727100
  -0.0002431500    0.0004287700    0.0001715000
   0.0002428200    0.0001725100    0.0004262800
   0.0036507900    0.0002679600   -0.0003727100
   0.0002431500    0.0004287700    0.0001715000
  -0.0002428200    0.0001725100    0.0004262800
  -0.0036338900   -0.0003690300    0.0002718300
   0.0003192100    0.0000973300    0.0000973300
   0.0000001200    0.0001276700    0.0001276700
  -0.0003160300    0.0000980100    0.0000980100
  -0.0000109400    0.0002064000    0.0002064000
   0.0000737400   -0.0001454500    0.0001087700
  -0.0000748000    0.0001110200   -0.0001450900
  -0.0004086300    0.0002698400   -0.0000805700
   0.0004124500   -0.0000803300    0.0002668900
   0.0000000000   -0.0033696000   -0.0033752500
   0.0000000000    0.0045491000    0.0002090300
   0.0000000000    0.0006813200    0.0006766200
   0.0000000000    0.0002035400    0.0045539300
   0.0004290100    0.0003183600   -0.0000746800
  -0.0000010700   -0.0000707600   -0.0000711700
  -0.0004290100   -0.0000746800    0.0003183600
   0.0000010700   -0.0000711700   -0.0000707600
   0.0000737400    0.0001087700   -0.0001454500
  -0.0000748000   -0.0001450900    0.0001110200
  -0.0004086300   -0.0000805700    0.0002698400
   0.0004124500    0.0002668900   -0.0000803300
  -0.0000000000   -0.0001106000   -0.0001106000
  -0.0000000000   -0.0001395700   -0.0001395700
   0.0000000000    0.0009518800    0.0009518800
  -0.0000000000   -0.0001448500   -0.0001448500
   0.0000748000    0.0001110200   -0.0001450900
   0.0004086300    0.0002698400   -0.0000805700
  -0.0004124500   -0.0000803300    0.0002668900
  -0.0000737400   -0.0001454500    0.0001087700
   0.0036338900    0.0002718300   -0.0003690300
  -0.0036507900   -0.0003727100    0.0002679600
  -0.0002431500    0.0001715000    0.0004287700
   0.0002428200    0.0004262800    0.0001725100
   0.0000000000   -0.0033752500   -0.0033696000
   0.0000000000    0.0002090300    0.0045491000
   0.0000000000    0.0006766200    0.0006813200
   0.0000000000    0.0045539300    0.0002035400
   0.0000748000   -0.0001450900    0.0001110200
   0.0004086300   -0.0000805700    0.0002698400
  -0.0004124500    0.0002668900   -0.0000803300
  -0.0000737400    0.0001087700   -0.0001454500
   0.0003160300    0.0000980100    0.0000980100
   0.0000109400    0.0002064000    0.0002064000
  -0.0003192100    0.0000973300    0.0000973300
  -0.0000001200    0.0001276700    0.0001276700
  -0.0006387200   -0.0003411100   -0.0003411100
  -0.0000014700   -0.0002337900   -0.0002337900
   0.0006333200   -0.0003389600   -0.0003389600
  -0.0000066900    0.0013149300    0.0013149300
  -0.0001115200   -0.0000281900   -0.0001220700
   0.0001111800   -0.0001224300   -0.0000277600
   0.0008310000   -0.0001466700    0.0000604900
  -0.0008363600    0.0000611500   -0.0001445700
   0.0000014100    0.0002955500    0.0002968800
   0.0005939300   -0.0003838400    0.0000609700
  -0.0000005600   -0.0001604900   -0.0001586400
  -0.0005962300    0.0000605100   -0.0003844500
   0.0000000000    0.0037021700    0.0013154300
   0.0000000000   -0.0012219500   -0.0007402800
   0.0000000000   -0.0007417700   -0.0012142000
   0.0000000000    0.0013135100    0.0033901000
  -0.0001115200   -0.0001220700   -0.0000281900
   0.0001111800   -0.0000277600   -0.0001224300
   0.0008310000    0.0000604900   -0.0001466700
  -0.0008363600   -0.0001445700    0.0000611500
   0.0000008400   -0.0000105300   -0.0000105300
   0.0001026700   -0.0000561400   -0.0000561400
   0.0000027500   -0.0002243200   -0.0002243200
  -0.0001051100   -0.0000551600   -0.0000551600
   0.0000000000    0.0004456200    0.0004491800
   0.0000000000   -0.0019369700   -0.0002239500
   0.0000000000   -0.0002242300   -0.0019399700
   0.0000000000    0.0004509900    0.0004538600
  -0.0005939300   -0.0003838400    0.0000609700
   0.0000005600   -0.0001604900   -0.0001586400
   0.0005962300    0.0000605100   -0.0003844500
  -0.0000014100    0.0002955500    0.0002968800
   0.0000014100    0.0002968800    0.0002955500
   0.0005939300    0.0000609700   -0.0003838400
  -0.0000005600   -0.0001586400   -0.0001604900
  -0.0005962300   -0.0003844500    0.0000605100
   0.0000000000    0.0004491800    0.0004456200
   0.0000000000   -0.0002239500   -0.0019369700
   0.0000000000   -0.0019399700   -0.0002242300
   0.0000000000    0.0004538600    0.0004509900
  -0.0001026700   -0.0000561400   -0.0000561400
  -0.0000027500   -0.0002243200   -0.0002243200
   0.0001051100   -0.0000551600   -0.0000551600
  -0.0000008400   -0.0000105300   -0.0000105300
  -0.0008310000   -0.0001466700    0.0000604900
   0.0008363600    0.0000611500   -0.0001445700
   0.0001115200   -0.0000281900   -0.0001220700
  -0.0001111800   -0.0001224300   -0.0000277600
   0.0000000000    0.0013154300    0.0037021700
   0.0000000000   -0.0007402800   -0.0012219500
   0.0000000000   -0.0012142000   -0.0007417700
   0.0000000000    0.0033901000    0.0013135100
  -0.0005939300    0.0000609700   -0.0003838400
   0.0000005600   -0.0001586400   -0.0001604900
   0.0005962300   -0.0003844500    0.0000605100
  -0.0000014100    0.0002968800    0.0002955500
  -0.0008310000    0.0000604900   -0.0001466700
   0.0008363600   -0.0001445700    0.0000611500
   0.0001115200   -0.0001220700   -0.0000281900
  -0.0001111800   -0.0000277600   -0.0001224300
   0.0000066900    0.0013149300    0.0013149300
   0.0006387200   -0.0003411100   -0.0003411100
   0.0000014700   -0.0002337900   -0.0002337900
  -0.0006333200   -0.0003389600   -0.0003389600

65   
  0.0000000000000000   0.0070710678118655   0.0070710678118655
  -0.0006336300   -0.0003407200   -0.0003407200
  -0.0000077100    0.0013147600    0.0013147600
   0.0006374300   -0.0003388900   -0.0003388900
   0.0000007000   -0.0002333900   -0.0002333900
   0.0000000000    0.0033952400    0.0013258000
   0.0000000000    0.0013027900    0.0036951000
   0.0000000000   -0.0009808100   -0.0009824500
   0.0000000000   -0.0009766900   -0.0009797700
   0.0000004400    0.0002944300    0.0002971200
  -0.0008344400    0.0000601400   -0.0003836600
  -0.0000012300   -0.0001586700   -0.0001597800
   0.0008334300   -0.0003853300    0.0000603300
  -0.0001116100   -0.0000277400   -0.0001214800
  -0.0005946400    0.0000605400   -0.0001492400
   0.0005954800   -0.0001436000    0.0000600300
   0.0001118500   -0.0001218300   -0.0000272900
   0.0000000000    0.0013258000    0.0033952400
   0.0000000000    0.0036951000    0.0013027900
   0.0000000000   -0.0009824500   -0.0009808100
   0.0000000000   -0.0009797700   -0.0009766900
   0.0000077100    0.0013147600    0.0013147600
  -0.0006374300   -0.0003388900   -0.0003388900
  -0.0000007000   -0.0002333900   -0.0002333900
   0.0006336300   -0.0003407200   -0.0003407200
  -0.0005954800    0.0000600300   -0.0001436000
  -0.0001118500   -0.0000272900   -0.0001218300
   0.0001116100   -0.0001214800   -0.0000277400
   0.0005946400   -0.0001492400    0.0000605400
  -0.0008334300    0.0000603300   -0.0003853300
  -0.0000004400    0.0002971200    0.0002944300
   0.0008344400   -0.0003836600    0.0000601400
   0.0000012300   -0.0001597800   -0.0001586700
   0.0000004400    0.0002971200    0.0002944300
  -0.0008344400   -0.0003836600    0.0000601400
  -0.0000012300   -0.0001597800   -0.0001586700
   0.0008334300    0.0000603300   -0.0003853300
  -0.0005954800   -0.0001436000    0.0000600300
  -0.0001118500   -0.0001218300   -0.0000272900
   0.0001116100   -0.0000277400   -0.0001214800
   0.0005946400    0.0000605400   -0.0001492400
  -0.0001025200   -0.0000561300   -0.0000561300
   0.0000002200   -0.0000097900   -0.0000097900
   0.0001037100   -0.0000565900   -0.0000565900
   0.0000059100   -0.0002242000   -0.0002242000
   0.0000000000    0.0006866200    0.0002104400
   0.0000000000    0.0002110700    0.0006880500
   0.0000000000   -0.0019405100   -0.0002237500
   0.0000000000   -0.0002249000   -0.0019325000
  -0.0001116100   -0.0001214800   -0.0000277400
  -0.0005946400   -0.0001492400    0.0000605400
   0.0005954800    0.0000600300   -0.0001436000
   0.0001118500   -0.0000272900   -0.0001218300
  -0.0008334300   -0.0003853300    0.0000603300
  -0.0000004400    0.0002944300    0.0002971200
   0.0008344400    0.0000601400   -0.0003836600
   0.0000012300   -0.0001586700   -0.0001597800
   0.0000000000    0.0002104400    0.0006866200
   0.0000000000    0.0006880500    0.0002110700
   0.0000000000   -0.0002237500   -0.0019405100
   0.0000000000   -0.0019325000   -0.0002249000
  -0.0000002200   -0.0000097900   -0.0000097900
  -0.0001037100   -0.0000565900   -0.0000565900
  -0.0000059100   -0.0002242000   -0.0002242000
   0.0001025200   -0.0000561300   -0.0000561300
   0.0000000000   -0.0224055900   -0.0224055900
   0.0000000000    0.0016298100    0.0016298100
   0.0000000000    0.0004580700    0.0004580700
   0.0000000000    0.0015976900    0.0015976900
   0.0014499300   -0.0000875900    0.0001668300
   0.0001908100    0.0001429000    0.0002772700
  -0.0001907900    0.0002765500    0.0001429400
  -0.0014423300    0.0001661600   -0.0000858100
   0.0002977400    0.0000189900    0.0001609600
   0.0000000700   -0.0000482700   -0.0000461300
  -0.0002977400    0.0001609600    0.0000189900
  -0.0000000700   -0.0000461300   -0.0000482700
   0.0014423300   -0.0000858100    0.0001661600
  -0.0014499300    0.0001668300   -0.0000875900
  -0.0001908100    0.0002772700    0.0001429000
   0.0001907900    0.0001429400    0.0002765500
   0.0014499300    0.0001668300   -0.0000875900
   0.0001908100    0.0002772700    0.0001429000
  -0.0001907900    0.0001429400    0.0002765500
  -0.0014423300   -0.0000858100    0.0001661600
   0.0002420600    0.0000909000    0.0000909000
  -0.0000004400    0.0001232100    0.0001232100
  -0.0002418400    0.0000921500    0.0000921500
  -0.0000188100    0.0003114100    0.0003114100
   0.0000513000   -0.0000997000    0.0000358700
  -0.0000510400    0.0000349000   -0.0000989300
  -0.0004242100    0.0004530700    0.0001305700
   0.0004221800    0.0001313000    0.0004507100
   0.0000000000   -0.0012786900   -0.0012790000
   0.0000000000    0.0052103200    0.0003148100
   0.0000000000    0.0008763700    0.0008733400
   0.0000000000    0.0003087100    0.0051940900
   0.0002977400    0.0001609600    0.0000189900
   0.0000000700   -0.0000461300   -0.0000482700
  -0.0002977400    0.0000189900    0.0001609600
  -0.0000000700   -0.0000482700   -0.0000461300
   0.0000513000    0.0000358700   -0.0000997000
  -0.0000510400   -0.0000989300    0.0000349000
  -0.0004242100    0.0001305700    0.0004530700
   0.0004221800    0.0004507100    0.0001313000
  -0.0000000000   -0.0001329800   -0.0001329800
   0.0000000000    0.0000282800    0.0000282800
  -0.0000000000    0.0014040800    0.0014040800
  -0.0000000000    0.0000283900    0.0000283900
   0.0000510400    0.0000349000   -0.0000989300
   0.0004242100    0.0004530700    0.0001305700
  -0.0004221800    0.0001313000    0.0004507100
  -0.0000513000   -0.0000997000    0.0000358700
   0.0014423300    0.0001661600   -0.0000858100
  -0.0014499300   -0.0000875900    0.0001668300
  -0.0001908100    0.0001429000    0.0002772700
   0.0001907900    0.0002765500    0.0001429400
   0.0000000000   -0.0012790000   -0.0012786900
   0.0000000000    0.0003148100    0.0052103200
   0.0000000000    0.0008733400    0.0008763700
   0.0000000000    0.0051940900    0.0003087100
   0.0000510400   -0.0000989300    0.0000349000
   0.0004242100    0.0001305700    0.0004530700
  -0.0004221800    0.0004507100    0.0001313000
  -0.0000513000    0.0000358700   -0.0000997000
   0.0002418400    0.0000921500    0.0000921500
   0.0000188100    0.0003114100    0.0003114100
  -0.0002420600    0.0000909000    0.0000909000
   0.0000004400    0.0001232100    0.0001232100
