mesh: [    48,    48,    48 ]
nqpoint: 2769   
natom:   2      
phonon:
- q-position: [    0.0000000,    0.0000000,    0.0000000 ]
  weight: 1    
  band:
  - # 1
    frequency:     0.0021799356
  - # 2
    frequency:     0.0021799356
  - # 3
    frequency:     0.0021799356
  - # 4
    frequency:     1.0120144647
  - # 5
    frequency:     1.0120144647
  - # 6
    frequency:     1.0120144647

- q-position: [    0.0208333,    0.0000000,    0.0000000 ]
  weight: 8    
  band:
  - # 1
    frequency:     0.1288442362
  - # 2
    frequency:     0.1288442362
  - # 3
    frequency:     0.1944600700
  - # 4
    frequency:     1.0544783689
  - # 5
    frequency:     1.0544783689
  - # 6
    frequency:     3.7548438552

- q-position: [    0.0416667,    0.0000000,    0.0000000 ]
  weight: 8    
  band:
  - # 1
    frequency:     0.2477433145
  - # 2
    frequency:     0.2477433145
  - # 3
    frequency:     0.3866909109
  - # 4
    frequency:     1.1729767306
  - # 5
    frequency:     1.1729767306
  - # 6
    frequency:     3.7758289459

- q-position: [    0.0625000,    0.0000000,    0.0000000 ]
  weight: 8    
  band:
  - # 1
    frequency:     0.3547822919
  - # 2
    frequency:     0.3547822919
  - # 3
    frequency:     0.5746328463
  - # 4
    frequency:     1.3460362754
  - # 5
    frequency:     1.3460362754
  - # 6
    frequency:     3.8098859918

- q-position: [    0.0833333,    0.0000000,    0.0000000 ]
  weight: 8    
  band:
  - # 1
    frequency:     0.4531905034
  - # 2
    frequency:     0.4531905034
  - # 3
    frequency:     0.7564283656
  - # 4
    frequency:     1.5505580902
  - # 5
    frequency:     1.5505580902
  - # 6
    frequency:     3.8556579931

- q-position: [    0.1041667,    0.0000000,    0.0000000 ]
  weight: 8    
  band:
  - # 1
    frequency:     0.5461810246
  - # 2
    frequency:     0.5461810246
  - # 3
    frequency:     0.9305485232
  - # 4
    frequency:     1.7686847745
  - # 5
    frequency:     1.7686847745
  - # 6
    frequency:     3.9112924006

- q-position: [    0.1250000,    0.0000000,    0.0000000 ]
  weight: 8    
  band:
  - # 1
    frequency:     0.6354640518
  - # 2
    frequency:     0.6354640518
  - # 3
    frequency:     1.0958594889
  - # 4
    frequency:     1.9883689817
  - # 5
    frequency:     1.9883689817
  - # 6
    frequency:     3.9745007133

- q-position: [    0.1458333,    0.0000000,    0.0000000 ]
  weight: 8    
  band:
  - # 1
    frequency:     0.7216741928
  - # 2
    frequency:     0.7216741928
  - # 3
    frequency:     1.2516645222
  - # 4
    frequency:     2.2017114074
  - # 5
    frequency:     2.2017114074
  - # 6
    frequency:     4.0426447235

- q-position: [    0.1666667,    0.0000000,    0.0000000 ]
  weight: 8    
  band:
  - # 1
    frequency:     0.8049219006
  - # 2
    frequency:     0.8049219006
  - # 3
    frequency:     1.3977207809
  - # 4
    frequency:     2.4034842923
  - # 5
    frequency:     2.4034842923
  - # 6
    frequency:     4.1128468515

- q-position: [    0.1875000,    0.0000000,    0.0000000 ]
  weight: 8    
  band:
  - # 1
    frequency:     0.8851078682
  - # 2
    frequency:     0.8851078682
  - # 3
    frequency:     1.5342341536
  - # 4
    frequency:     2.5902200076
  - # 5
    frequency:     2.5902200076
  - # 6
    frequency:     4.1821170328

- q-position: [    0.2083333,    0.0000000,    0.0000000 ]
  weight: 8    
  band:
  - # 1
    frequency:     0.9620652274
  - # 2
    frequency:     0.9620652274
  - # 3
    frequency:     1.6618349272
  - # 4
    frequency:     2.7596948461
  - # 5
    frequency:     2.7596948461
  - # 6
    frequency:     4.2474860863

- q-position: [    0.2291667,    0.0000000,    0.0000000 ]
  weight: 8    
  band:
  - # 1
    frequency:     1.0356131079
  - # 2
    frequency:     1.0356131079
  - # 3
    frequency:     1.7815339961
  - # 4
    frequency:     2.9106331535
  - # 5
    frequency:     2.9106331535
  - # 6
    frequency:     4.3061362078

- q-position: [    0.2500000,    0.0000000,    0.0000000 ]
  weight: 8    
  band:
  - # 1
    frequency:     1.1055689529
  - # 2
    frequency:     1.1055689529
  - # 3
    frequency:     1.8946551741
  - # 4
    frequency:     3.0425254716
  - # 5
    frequency:     3.0425254716
  - # 6
    frequency:     4.3555224062

- q-position: [    0.2708333,    0.0000000,    0.0000000 ]
  weight: 8    
  band:
  - # 1
    frequency:     1.1717428633
  - # 2
    frequency:     1.1717428633
  - # 3
    frequency:     2.0027362339
  - # 4
    frequency:     3.1555030418
  - # 5
    frequency:     3.1555030418
  - # 6
    frequency:     4.3934827732

- q-position: [    0.2916667,    0.0000000,    0.0000000 ]
  weight: 8    
  band:
  - # 1
    frequency:     1.2339253654
  - # 2
    frequency:     1.2339253654
  - # 3
    frequency:     2.1073913663
  - # 4
    frequency:     3.2502381807
  - # 5
    frequency:     3.2502381807
  - # 6
    frequency:     4.4183391716

- q-position: [    0.3125000,    0.0000000,    0.0000000 ]
  weight: 8    
  band:
  - # 1
    frequency:     1.2918745600
  - # 2
    frequency:     1.2918745600
  - # 3
    frequency:     2.2101312507
  - # 4
    frequency:     3.3278543732
  - # 5
    frequency:     3.3278543732
  - # 6
    frequency:     4.4289928193

- q-position: [    0.3333333,    0.0000000,    0.0000000 ]
  weight: 8    
  band:
  - # 1
    frequency:     1.3453061044
  - # 2
    frequency:     1.3453061044
  - # 3
    frequency:     2.3121425822
  - # 4
    frequency:     3.3898374987
  - # 5
    frequency:     3.3898374987
  - # 6
    frequency:     4.4250217713

- q-position: [    0.3541667,    0.0000000,    0.0000000 ]
  weight: 8    
  band:
  - # 1
    frequency:     1.3938882857
  - # 2
    frequency:     1.3938882857
  - # 3
    frequency:     2.4140338950
  - # 4
    frequency:     3.4379436838
  - # 5
    frequency:     3.4379436838
  - # 6
    frequency:     4.4067902910

- q-position: [    0.3750000,    0.0000000,    0.0000000 ]
  weight: 8    
  band:
  - # 1
    frequency:     1.4372438224
  - # 2
    frequency:     1.4372438224
  - # 3
    frequency:     2.5155557144
  - # 4
    frequency:     3.4741016249
  - # 5
    frequency:     3.4741016249
  - # 6
    frequency:     4.3755840058

- q-position: [    0.3958333,    0.0000000,    0.0000000 ]
  weight: 8    
  band:
  - # 1
    frequency:     1.4749595762
  - # 2
    frequency:     1.4749595762
  - # 3
    frequency:     2.6152998481
  - # 4
    frequency:     3.5003088384
  - # 5
    frequency:     3.5003088384
  - # 6
    frequency:     4.3337878264

- q-position: [    0.4166667,    0.0000000,    0.0000000 ]
  weight: 8    
  band:
  - # 1
    frequency:     1.5066047649
  - # 2
    frequency:     1.5066047649
  - # 3
    frequency:     2.7103837607
  - # 4
    frequency:     3.5185227887
  - # 5
    frequency:     3.5185227887
  - # 6
    frequency:     4.2851165216

- q-position: [    0.4375000,    0.0000000,    0.0000000 ]
  weight: 8    
  band:
  - # 1
    frequency:     1.5317572637
  - # 2
    frequency:     1.5317572637
  - # 3
    frequency:     2.7961638884
  - # 4
    frequency:     3.5305496270
  - # 5
    frequency:     3.5305496270
  - # 6
    frequency:     4.2348598851

- q-position: [    0.4583333,    0.0000000,    0.0000000 ]
  weight: 8    
  band:
  - # 1
    frequency:     1.5500360380
  - # 2
    frequency:     1.5500360380
  - # 3
    frequency:     2.8661702020
  - # 4
    frequency:     3.5379354550
  - # 5
    frequency:     3.5379354550
  - # 6
    frequency:     4.1899452582

- q-position: [    0.4791667,    0.0000000,    0.0000000 ]
  weight: 8    
  band:
  - # 1
    frequency:     1.5611358437
  - # 2
    frequency:     1.5611358437
  - # 3
    frequency:     2.9127706952
  - # 4
    frequency:     3.5418673194
  - # 5
    frequency:     3.5418673194
  - # 6
    frequency:     4.1582957842

- q-position: [    0.5000000,    0.0000000,    0.0000000 ]
  weight: 4    
  band:
  - # 1
    frequency:     1.5648586676
  - # 2
    frequency:     1.5648586676
  - # 3
    frequency:     2.9292309437
  - # 4
    frequency:     3.5430928240
  - # 5
    frequency:     3.5430928240
  - # 6
    frequency:     4.1468028714

- q-position: [    0.0208333,    0.0208333,    0.0000000 ]
  weight: 6    
  band:
  - # 1
    frequency:     0.1471791548
  - # 2
    frequency:     0.1471791548
  - # 3
    frequency:     0.2261953145
  - # 4
    frequency:     1.0596703765
  - # 5
    frequency:     1.0596703765
  - # 6
    frequency:     3.7616451263

- q-position: [    0.0416667,    0.0208333,    0.0000000 ]
  weight: 24   
  band:
  - # 1
    frequency:     0.2377013669
  - # 2
    frequency:     0.2378894547
  - # 3
    frequency:     0.3719534253
  - # 4
    frequency:     1.1434708511
  - # 5
    frequency:     1.1523171056
  - # 6
    frequency:     3.7795537388

- q-position: [    0.0625000,    0.0208333,    0.0000000 ]
  weight: 24   
  band:
  - # 1
    frequency:     0.3362974293
  - # 2
    frequency:     0.3378144425
  - # 3
    frequency:     0.5435800132
  - # 4
    frequency:     1.2894500352
  - # 5
    frequency:     1.3119281237
  - # 6
    frequency:     3.8085633197

- q-position: [    0.0833333,    0.0208333,    0.0000000 ]
  weight: 24   
  band:
  - # 1
    frequency:     0.4312914549
  - # 2
    frequency:     0.4333120779
  - # 3
    frequency:     0.7185669039
  - # 4
    frequency:     1.4754183520
  - # 5
    frequency:     1.5095246888
  - # 6
    frequency:     3.8491683713

- q-position: [    0.1041667,    0.0208333,    0.0000000 ]
  weight: 24   
  band:
  - # 1
    frequency:     0.5230994481
  - # 2
    frequency:     0.5238575914
  - # 3
    frequency:     0.8900040080
  - # 4
    frequency:     1.6818814339
  - # 5
    frequency:     1.7252162161
  - # 6
    frequency:     3.8999864428

- q-position: [    0.1250000,    0.0208333,    0.0000000 ]
  weight: 24   
  band:
  - # 1
    frequency:     0.6105038364
  - # 2
    frequency:     0.6126664817
  - # 3
    frequency:     1.0548042909
  - # 4
    frequency:     1.8948326230
  - # 5
    frequency:     1.9456262645
  - # 6
    frequency:     3.9589899729

- q-position: [    0.1458333,    0.0208333,    0.0000000 ]
  weight: 24   
  band:
  - # 1
    frequency:     0.6938985602
  - # 2
    frequency:     0.7002465269
  - # 3
    frequency:     1.2113464294
  - # 4
    frequency:     2.1049038075
  - # 5
    frequency:     2.1619398139
  - # 6
    frequency:     4.0237435914

- q-position: [    0.1666667,    0.0208333,    0.0000000 ]
  weight: 24   
  band:
  - # 1
    frequency:     0.7742758868
  - # 2
    frequency:     0.7856608635
  - # 3
    frequency:     1.3588474023
  - # 4
    frequency:     2.3058944547
  - # 5
    frequency:     2.3682775918
  - # 6
    frequency:     4.0915272628

- q-position: [    0.1875000,    0.0208333,    0.0000000 ]
  weight: 24   
  band:
  - # 1
    frequency:     0.8516667809
  - # 2
    frequency:     0.8685596941
  - # 3
    frequency:     1.4971435183
  - # 4
    frequency:     2.4937020920
  - # 5
    frequency:     2.5606723130
  - # 6
    frequency:     4.1594583499

- q-position: [    0.2083333,    0.0208333,    0.0000000 ]
  weight: 24   
  band:
  - # 1
    frequency:     0.9260308896
  - # 2
    frequency:     0.9485531762
  - # 3
    frequency:     1.6265845408
  - # 4
    frequency:     2.6656768155
  - # 5
    frequency:     2.7364855864
  - # 6
    frequency:     4.2246207626

- q-position: [    0.2291667,    0.0208333,    0.0000000 ]
  weight: 24   
  band:
  - # 1
    frequency:     0.9973123951
  - # 2
    frequency:     1.0252619216
  - # 3
    frequency:     1.7479572128
  - # 4
    frequency:     2.8202437646
  - # 5
    frequency:     2.8940773654
  - # 6
    frequency:     4.2841946007

- q-position: [    0.2500000,    0.0208333,    0.0000000 ]
  weight: 24   
  band:
  - # 1
    frequency:     1.0654526926
  - # 2
    frequency:     1.0983289546
  - # 3
    frequency:     1.8624069161
  - # 4
    frequency:     2.9566728495
  - # 5
    frequency:     3.0326084824
  - # 6
    frequency:     4.3355794698

- q-position: [    0.2708333,    0.0208333,    0.0000000 ]
  weight: 24   
  band:
  - # 1
    frequency:     1.1303820066
  - # 2
    frequency:     1.1674149749
  - # 3
    frequency:     1.9713404469
  - # 4
    frequency:     3.0749245761
  - # 5
    frequency:     3.1519102321
  - # 6
    frequency:     4.3765079617

- q-position: [    0.2916667,    0.0208333,    0.0000000 ]
  weight: 24   
  band:
  - # 1
    frequency:     1.1920023277
  - # 2
    frequency:     1.2321873181
  - # 3
    frequency:     2.0762981423
  - # 4
    frequency:     3.1755329476
  - # 5
    frequency:     3.2523856521
  - # 6
    frequency:     4.4051495563

- q-position: [    0.3125000,    0.0208333,    0.0000000 ]
  weight: 24   
  band:
  - # 1
    frequency:     1.2501686692
  - # 2
    frequency:     1.2923077832
  - # 3
    frequency:     2.1787882384
  - # 4
    frequency:     3.2595044565
  - # 5
    frequency:     3.3349235960
  - # 6
    frequency:     4.4202083038

- q-position: [    0.3333333,    0.0208333,    0.0000000 ]
  weight: 24   
  band:
  - # 1
    frequency:     1.3046729166
  - # 2
    frequency:     1.3474224616
  - # 3
    frequency:     2.2800820703
  - # 4
    frequency:     3.3282219914
  - # 5
    frequency:     3.4008154747
  - # 6
    frequency:     4.4210201267

- q-position: [    0.3541667,    0.0208333,    0.0000000 ]
  weight: 24   
  band:
  - # 1
    frequency:     1.3552331321
  - # 2
    frequency:     1.3971560691
  - # 3
    frequency:     2.3809742908
  - # 4
    frequency:     3.3833478783
  - # 5
    frequency:     3.4516692914
  - # 6
    frequency:     4.4076581764

- q-position: [    0.3750000,    0.0208333,    0.0000000 ]
  weight: 24   
  band:
  - # 1
    frequency:     1.4014903648
  - # 2
    frequency:     1.4411129689
  - # 3
    frequency:     2.4815152484
  - # 4
    frequency:     3.4267233813
  - # 5
    frequency:     3.4893181758
  - # 6
    frequency:     4.3810580483

- q-position: [    0.3958333,    0.0208333,    0.0000000 ]
  weight: 24   
  band:
  - # 1
    frequency:     1.4430144320
  - # 2
    frequency:     1.4788864375
  - # 3
    frequency:     2.5807217369
  - # 4
    frequency:     3.4602639755
  - # 5
    frequency:     3.5157220035
  - # 6
    frequency:     4.3431780817

- q-position: [    0.4166667,    0.0208333,    0.0000000 ]
  weight: 24   
  band:
  - # 1
    frequency:     1.4793195007
  - # 2
    frequency:     1.5100765419
  - # 3
    frequency:     2.6762722807
  - # 4
    frequency:     3.4858512963
  - # 5
    frequency:     3.5328613364
  - # 6
    frequency:     4.2972075838

- q-position: [    0.4375000,    0.0208333,    0.0000000 ]
  weight: 24   
  band:
  - # 1
    frequency:     1.5098893674
  - # 2
    frequency:     1.5343155174
  - # 3
    frequency:     2.7642154904
  - # 4
    frequency:     3.5052242859
  - # 5
    frequency:     3.5426232068
  - # 6
    frequency:     4.2478066919

- q-position: [    0.4583333,    0.0208333,    0.0000000 ]
  weight: 24   
  band:
  - # 1
    frequency:     1.5342109386
  - # 2
    frequency:     1.5512980441
  - # 3
    frequency:     2.8388198092
  - # 4
    frequency:     3.5198739032
  - # 5
    frequency:     3.5466796847
  - # 6
    frequency:     4.2012519592

- q-position: [    0.4791667,    0.0208333,    0.0000000 ]
  weight: 24   
  band:
  - # 1
    frequency:     1.5518126248
  - # 2
    frequency:     1.5608125184
  - # 3
    frequency:     2.8929391821
  - # 4
    frequency:     3.5309476854
  - # 5
    frequency:     3.5463691000
  - # 6
    frequency:     4.1650995254

- q-position: [    0.5000000,    0.0208333,    0.0000000 ]
  weight: 24   
  band:
  - # 1
    frequency:     1.5623026157
  - # 2
    frequency:     1.5627684203
  - # 3
    frequency:     2.9195185267
  - # 4
    frequency:     3.5391719379
  - # 5
    frequency:     3.5426142055
  - # 6
    frequency:     4.1467004676

- q-position: [   -0.4791667,    0.0208333,    0.0000000 ]
  weight: 24   
  band:
  - # 1
    frequency:     1.5571338179
  - # 2
    frequency:     1.5654010429
  - # 3
    frequency:     2.9141174517
  - # 4
    frequency:     3.5360964480
  - # 5
    frequency:     3.5447995762
  - # 6
    frequency:     4.1504569776

- q-position: [   -0.4583333,    0.0208333,    0.0000000 ]
  weight: 24   
  band:
  - # 1
    frequency:     1.5441521096
  - # 2
    frequency:     1.5609605976
  - # 3
    frequency:     2.8777555184
  - # 4
    frequency:     3.5268086677
  - # 5
    frequency:     3.5475900038
  - # 6
    frequency:     4.1754250094

- q-position: [   -0.4375000,    0.0208333,    0.0000000 ]
  weight: 24   
  band:
  - # 1
    frequency:     1.5242034592
  - # 2
    frequency:     1.5489724051
  - # 3
    frequency:     2.8160411698
  - # 4
    frequency:     3.5143129464
  - # 5
    frequency:     3.5468238670
  - # 6
    frequency:     4.2159068470

- q-position: [   -0.4166667,    0.0208333,    0.0000000 ]
  weight: 24   
  band:
  - # 1
    frequency:     1.4977334137
  - # 2
    frequency:     1.5295572262
  - # 3
    frequency:     2.7363045347
  - # 4
    frequency:     3.4978362008
  - # 5
    frequency:     3.5413509714
  - # 6
    frequency:     4.2642271694

- q-position: [   -0.3958333,    0.0208333,    0.0000000 ]
  weight: 24   
  band:
  - # 1
    frequency:     1.4652554925
  - # 2
    frequency:     1.5029451374
  - # 3
    frequency:     2.6453040131
  - # 4
    frequency:     3.4761795501
  - # 5
    frequency:     3.5296655261
  - # 6
    frequency:     4.3131532438

- q-position: [   -0.3750000,    0.0208333,    0.0000000 ]
  weight: 24   
  band:
  - # 1
    frequency:     1.4273085489
  - # 2
    frequency:     1.4694486542
  - # 3
    frequency:     2.5481739277
  - # 4
    frequency:     3.4477921392
  - # 5
    frequency:     3.5100004391
  - # 6
    frequency:     4.3569340219

- q-position: [   -0.3541667,    0.0208333,    0.0000000 ]
  weight: 24   
  band:
  - # 1
    frequency:     1.3844155742
  - # 2
    frequency:     1.4294344418
  - # 3
    frequency:     2.4482942295
  - # 4
    frequency:     3.4108831131
  - # 5
    frequency:     3.4804320680
  - # 6
    frequency:     4.3914148745

- q-position: [   -0.3333333,    0.0208333,    0.0000000 ]
  weight: 24   
  band:
  - # 1
    frequency:     1.3370494422
  - # 2
    frequency:     1.3832976862
  - # 3
    frequency:     2.3475122623
  - # 4
    frequency:     3.3635410292
  - # 5
    frequency:     3.4389881707
  - # 6
    frequency:     4.4138346612

- q-position: [   -0.3125000,    0.0208333,    0.0000000 ]
  weight: 24   
  band:
  - # 1
    frequency:     1.2856093348
  - # 2
    frequency:     1.3314416439
  - # 3
    frequency:     2.2464430980
  - # 4
    frequency:     3.3038503113
  - # 5
    frequency:     3.3837539452
  - # 6
    frequency:     4.4225900374

- q-position: [   -0.2916667,    0.0208333,    0.0000000 ]
  weight: 24   
  band:
  - # 1
    frequency:     1.2304094495
  - # 2
    frequency:     1.2742634741
  - # 3
    frequency:     2.1447677442
  - # 4
    frequency:     3.2300024480
  - # 5
    frequency:     3.3129732120
  - # 6
    frequency:     4.4170433502

- q-position: [   -0.2708333,    0.0208333,    0.0000000 ]
  weight: 24   
  band:
  - # 1
    frequency:     1.1716795077
  - # 2
    frequency:     1.2121464887
  - # 3
    frequency:     2.0415136803
  - # 4
    frequency:     3.1404015649
  - # 5
    frequency:     3.2251435876
  - # 6
    frequency:     4.3973754865

- q-position: [   -0.2500000,    0.0208333,    0.0000000 ]
  weight: 24   
  band:
  - # 1
    frequency:     1.1095749962
  - # 2
    frequency:     1.1454583846
  - # 3
    frequency:     1.9353128040
  - # 4
    frequency:     3.0337647934
  - # 5
    frequency:     3.1191059469
  - # 6
    frequency:     4.3644685386

- q-position: [   -0.2291667,    0.0208333,    0.0000000 ]
  weight: 24   
  band:
  - # 1
    frequency:     1.0441941843
  - # 2
    frequency:     1.0745546789
  - # 3
    frequency:     1.8246299718
  - # 4
    frequency:     2.9092190264
  - # 5
    frequency:     2.9941298696
  - # 6
    frequency:     4.3198039336

- q-position: [   -0.2083333,    0.0208333,    0.0000000 ]
  weight: 24   
  band:
  - # 1
    frequency:     0.9755985940
  - # 2
    frequency:     0.9997861841
  - # 3
    frequency:     1.7079553090
  - # 4
    frequency:     2.7663977363
  - # 5
    frequency:     2.8499986435
  - # 6
    frequency:     4.2653653702

- q-position: [   -0.1875000,    0.0208333,    0.0000000 ]
  weight: 24   
  band:
  - # 1
    frequency:     0.9038331530
  - # 2
    frequency:     0.9215086855
  - # 3
    frequency:     1.5839574272
  - # 4
    frequency:     2.6055453127
  - # 5
    frequency:     2.6871005244
  - # 6
    frequency:     4.2035390334

- q-position: [   -0.1666667,    0.0208333,    0.0000000 ]
  weight: 24   
  band:
  - # 1
    frequency:     0.8289408863
  - # 2
    frequency:     0.8400915977
  - # 3
    frequency:     1.4516006078
  - # 4
    frequency:     2.4276432507
  - # 5
    frequency:     2.5065386328
  - # 6
    frequency:     4.1370060128

- q-position: [   -0.1458333,    0.0208333,    0.0000000 ]
  weight: 24   
  band:
  - # 1
    frequency:     0.7509634912
  - # 2
    frequency:     0.7559194602
  - # 3
    frequency:     1.3102345102
  - # 4
    frequency:     2.2345852713
  - # 5
    frequency:     2.3102824179
  - # 6
    frequency:     4.0686243994

- q-position: [   -0.1250000,    0.0208333,    0.0000000 ]
  weight: 24   
  band:
  - # 1
    frequency:     0.6693739966
  - # 2
    frequency:     0.6699116895
  - # 3
    frequency:     1.1596693829
  - # 4
    frequency:     2.0294521930
  - # 5
    frequency:     2.1014032407
  - # 6
    frequency:     4.0013016586

- q-position: [   -0.1041667,    0.0208333,    0.0000000 ]
  weight: 24   
  band:
  - # 1
    frequency:     0.5807726949
  - # 2
    frequency:     0.5856763070
  - # 3
    frequency:     1.0002561029
  - # 4
    frequency:     1.8169800702
  - # 5
    frequency:     1.8844717367
  - # 6
    frequency:     3.9378611590

- q-position: [   -0.0833333,    0.0208333,    0.0000000 ]
  weight: 24   
  band:
  - # 1
    frequency:     0.4902254233
  - # 2
    frequency:     0.4978423290
  - # 3
    frequency:     0.8330103715
  - # 4
    frequency:     1.6043797711
  - # 5
    frequency:     1.6662480645
  - # 6
    frequency:     3.8809082298

- q-position: [   -0.0625000,    0.0208333,    0.0000000 ]
  weight: 24   
  band:
  - # 1
    frequency:     0.3974043225
  - # 2
    frequency:     0.4054477849
  - # 3
    frequency:     0.6598967081
  - # 4
    frequency:     1.4027002829
  - # 5
    frequency:     1.4568274092
  - # 6
    frequency:     3.8326959581

- q-position: [   -0.0416667,    0.0208333,    0.0000000 ]
  weight: 24   
  band:
  - # 1
    frequency:     0.3016125036
  - # 2
    frequency:     0.3073167330
  - # 3
    frequency:     0.4847200630
  - # 4
    frequency:     1.2286454997
  - # 5
    frequency:     1.2711659749
  - # 6
    frequency:     3.7949649000

- q-position: [   -0.0208333,    0.0208333,    0.0000000 ]
  weight: 12   
  band:
  - # 1
    frequency:     0.2046653267
  - # 2
    frequency:     0.2061909614
  - # 3
    frequency:     0.3169582122
  - # 4
    frequency:     1.1054689294
  - # 5
    frequency:     1.1296877813
  - # 6
    frequency:     3.7686612688

- q-position: [    0.0416667,    0.0416667,    0.0000000 ]
  weight: 6    
  band:
  - # 1
    frequency:     0.2805352410
  - # 2
    frequency:     0.2805352410
  - # 3
    frequency:     0.4506514807
  - # 4
    frequency:     1.1869984105
  - # 5
    frequency:     1.1869984105
  - # 6
    frequency:     3.8008213129

- q-position: [    0.0625000,    0.0416667,    0.0000000 ]
  weight: 24   
  band:
  - # 1
    frequency:     0.3526389669
  - # 2
    frequency:     0.3527012155
  - # 3
    frequency:     0.5804068572
  - # 4
    frequency:     1.2945127551
  - # 5
    frequency:     1.3047512214
  - # 6
    frequency:     3.8286060395

- q-position: [    0.0833333,    0.0416667,    0.0000000 ]
  weight: 24   
  band:
  - # 1
    frequency:     0.4336237310
  - # 2
    frequency:     0.4336536186
  - # 3
    frequency:     0.7306112234
  - # 4
    frequency:     1.4485997035
  - # 5
    frequency:     1.4794973899
  - # 6
    frequency:     3.8637244932

- q-position: [    0.1041667,    0.0416667,    0.0000000 ]
  weight: 24   
  band:
  - # 1
    frequency:     0.5151661857
  - # 2
    frequency:     0.5169666089
  - # 3
    frequency:     0.8873253484
  - # 4
    frequency:     1.6308579036
  - # 5
    frequency:     1.6829414086
  - # 6
    frequency:     3.9072543848

- q-position: [    0.1250000,    0.0416667,    0.0000000 ]
  weight: 24   
  band:
  - # 1
    frequency:     0.5950960161
  - # 2
    frequency:     0.6012217947
  - # 3
    frequency:     1.0433602328
  - # 4
    frequency:     1.8263196010
  - # 5
    frequency:     1.8972351790
  - # 6
    frequency:     3.9584746827

- q-position: [    0.1458333,    0.0416667,    0.0000000 ]
  weight: 24   
  band:
  - # 1
    frequency:     0.6728717732
  - # 2
    frequency:     0.6857362135
  - # 3
    frequency:     1.1947816645
  - # 4
    frequency:     2.0242185111
  - # 5
    frequency:     2.1114307166
  - # 6
    frequency:     4.0156806827

- q-position: [    0.1666667,    0.0416667,    0.0000000 ]
  weight: 24   
  band:
  - # 1
    frequency:     0.7483217972
  - # 2
    frequency:     0.7697562741
  - # 3
    frequency:     1.3394481306
  - # 4
    frequency:     2.2171647667
  - # 5
    frequency:     2.3185008306
  - # 6
    frequency:     4.0766414458

- q-position: [    0.1875000,    0.0416667,    0.0000000 ]
  weight: 24   
  band:
  - # 1
    frequency:     0.8213546931
  - # 2
    frequency:     0.8524991284
  - # 3
    frequency:     1.4763290370
  - # 4
    frequency:     2.4001751841
  - # 5
    frequency:     2.5137482616
  - # 6
    frequency:     4.1388315221

- q-position: [    0.2083333,    0.0416667,    0.0000000 ]
  weight: 24   
  band:
  - # 1
    frequency:     0.8919181065
  - # 2
    frequency:     0.9332266785
  - # 3
    frequency:     1.6051684528
  - # 4
    frequency:     2.5699672441
  - # 5
    frequency:     2.6939907176
  - # 6
    frequency:     4.1995922080

- q-position: [    0.2291667,    0.0416667,    0.0000000 ]
  weight: 24   
  band:
  - # 1
    frequency:     0.9599922548
  - # 2
    frequency:     1.0112737307
  - # 3
    frequency:     1.7262959826
  - # 4
    frequency:     2.7245048304
  - # 5
    frequency:     2.8571317966
  - # 6
    frequency:     4.2562707570

- q-position: [    0.2500000,    0.0416667,    0.0000000 ]
  weight: 24   
  band:
  - # 1
    frequency:     1.0255765287
  - # 2
    frequency:     1.0860478939
  - # 3
    frequency:     1.8404946474
  - # 4
    frequency:     2.8627084942
  - # 5
    frequency:     3.0019217813
  - # 6
    frequency:     4.3063480442

- q-position: [    0.2708333,    0.0416667,    0.0000000 ]
  weight: 24   
  band:
  - # 1
    frequency:     1.0886672529
  - # 2
    frequency:     1.1570170590
  - # 3
    frequency:     1.9488820864
  - # 4
    frequency:     2.9842602711
  - # 5
    frequency:     3.1278117430
  - # 6
    frequency:     4.3475558189

- q-position: [    0.2916667,    0.0416667,    0.0000000 ]
  weight: 24   
  band:
  - # 1
    frequency:     1.1492313150
  - # 2
    frequency:     1.2236920914
  - # 3
    frequency:     2.0527810485
  - # 4
    frequency:     3.0894590931
  - # 5
    frequency:     3.2348520334
  - # 6
    frequency:     4.3779845071

- q-position: [    0.3125000,    0.0416667,    0.0000000 ]
  weight: 24   
  band:
  - # 1
    frequency:     1.2071802630
  - # 2
    frequency:     1.2856083696
  - # 3
    frequency:     2.1535650646
  - # 4
    frequency:     3.1791013625
  - # 5
    frequency:     3.3236094906
  - # 6
    frequency:     4.3961845336

- q-position: [    0.3333333,    0.0416667,    0.0000000 ]
  weight: 24   
  band:
  - # 1
    frequency:     1.2623484464
  - # 2
    frequency:     1.3423090970
  - # 3
    frequency:     2.2524721946
  - # 4
    frequency:     3.2543726039
  - # 5
    frequency:     3.3950897124
  - # 6
    frequency:     4.4012660767

- q-position: [    0.3541667,    0.0416667,    0.0000000 ]
  weight: 24   
  band:
  - # 1
    frequency:     1.3144778506
  - # 2
    frequency:     1.3933340687
  - # 3
    frequency:     2.3503856795
  - # 4
    frequency:     3.3167428239
  - # 5
    frequency:     3.4506573841
  - # 6
    frequency:     4.3930039424

- q-position: [    0.3750000,    0.0416667,    0.0000000 ]
  weight: 24   
  band:
  - # 1
    frequency:     1.3632114964
  - # 2
    frequency:     1.4382179768
  - # 3
    frequency:     2.4475849575
  - # 4
    frequency:     3.3678622149
  - # 5
    frequency:     3.4919513044
  - # 6
    frequency:     4.3719564254

- q-position: [    0.3958333,    0.0416667,    0.0000000 ]
  weight: 24   
  band:
  - # 1
    frequency:     1.4080966064
  - # 2
    frequency:     1.4765010484
  - # 3
    frequency:     2.5434734152
  - # 4
    frequency:     3.4094563472
  - # 5
    frequency:     3.5207923144
  - # 6
    frequency:     4.3396095025

- q-position: [    0.4166667,    0.0416667,    0.0000000 ]
  weight: 24   
  band:
  - # 1
    frequency:     1.4485980632
  - # 2
    frequency:     1.5077517650
  - # 3
    frequency:     2.6362929830
  - # 4
    frequency:     3.4432217325
  - # 5
    frequency:     3.5390818721
  - # 6
    frequency:     4.2985569823

- q-position: [    0.4375000,    0.0416667,    0.0000000 ]
  weight: 24   
  band:
  - # 1
    frequency:     1.4841218842
  - # 2
    frequency:     1.5315980449
  - # 3
    frequency:     2.7228529888
  - # 4
    frequency:     3.4707240329
  - # 5
    frequency:     3.5486863153
  - # 6
    frequency:     4.2527099817

- q-position: [    0.4583333,    0.0416667,    0.0000000 ]
  weight: 24   
  band:
  - # 1