nqpoint: 303    
npath: 3      
natom: 12     
reciprocal_lattice:
- [   0.16992440,   0.00000033,  -0.00191936 ] # a*
- [   0.00000034,   0.17083577,   0.00000012 ] # b*
- [  -0.00191526,   0.00000013,   0.16650513 ] # c*
phonon:
- q-position: [    0.5000000,    0.5000000,    0.5000000 ]
  distance:    0.0000000
  band:
  - # 1
    frequency:   -0.5078555992
  - # 2
    frequency:    0.3899792550
  - # 3
    frequency:    1.2628206537
  - # 4
    frequency:    1.4677810569
  - # 5
    frequency:    1.5211905293
  - # 6
    frequency:    1.6742703760
  - # 7
    frequency:    2.0304241325
  - # 8
    frequency:    2.2663299280
  - # 9
    frequency:    2.5157004945
  - # 10
    frequency:    2.6044135854
  - # 11
    frequency:    2.7285965931
  - # 12
    frequency:    3.3902684260
  - # 13
    frequency:    3.6868268344
  - # 14
    frequency:    4.0752384677
  - # 15
    frequency:    4.1634560042
  - # 16
    frequency:    4.3792231776
  - # 17
    frequency:    4.6813395059
  - # 18
    frequency:    4.8030848294
  - # 19
    frequency:    9.9396662177
  - # 20
    frequency:   26.2704725355
  - # 21
    frequency:   27.5116951584
  - # 22
    frequency:   30.4123918277
  - # 23
    frequency:   36.3586182524
  - # 24
    frequency:   37.3200029128
  - # 25
    frequency:   41.3261285920
  - # 26
    frequency:   42.6321140862
  - # 27
    frequency:   42.7831380120
  - # 28
    frequency:   44.2023320837
  - # 29
    frequency:   46.4523906499
  - # 30
    frequency:   47.1249700011
  - # 31
    frequency:   89.1490109523
  - # 32
    frequency:   92.0902191529
  - # 33
    frequency:   92.2346024416
  - # 34
    frequency:   92.5500594906
  - # 35
    frequency:   93.6508017170
  - # 36
    frequency:   95.9379110692

- q-position: [    0.4950000,    0.4950000,    0.4950000 ]
  distance:    0.0014535
  band:
  - # 1
    frequency:   -0.5074600573
  - # 2
    frequency:    0.3904669618
  - # 3
    frequency:    1.2627345763
  - # 4
    frequency:    1.4676461818
  - # 5
    frequency:    1.5213819937
  - # 6
    frequency:    1.6742383397
  - # 7
    frequency:    2.0303777567
  - # 8
    frequency:    2.2661997093
  - # 9
    frequency:    2.5155845265
  - # 10
    frequency:    2.6041930856
  - # 11
    frequency:    2.7284364278
  - # 12
    frequency:    3.3902755821
  - # 13
    frequency:    3.6866092074
  - # 14
    frequency:    4.0749635896
  - # 15
    frequency:    4.1634788286
  - # 16
    frequency:    4.3791349018
  - # 17
    frequency:    4.6814263132
  - # 18
    frequency:    4.8028583410
  - # 19
    frequency:    9.9397889916
  - # 20
    frequency:   26.2705630766
  - # 21
    frequency:   27.5116997180
  - # 22
    frequency:   30.4123961638
  - # 23
    frequency:   36.3586036923
  - # 24
    frequency:   37.3199142280
  - # 25
    frequency:   41.3261074145
  - # 26
    frequency:   42.6320689290
  - # 27
    frequency:   42.7831378352
  - # 28
    frequency:   44.2023277305
  - # 29
    frequency:   46.4523760706
  - # 30
    frequency:   47.1249287272
  - # 31
    frequency:   89.1490142264
  - # 32
    frequency:   92.0901908648
  - # 33
    frequency:   92.2346339759
  - # 34
    frequency:   92.5501810316
  - # 35
    frequency:   93.6508208983
  - # 36
    frequency:   95.9379207693

- q-position: [    0.4900000,    0.4900000,    0.4900000 ]
  distance:    0.0029069
  band:
  - # 1
    frequency:   -0.5062732306
  - # 2
    frequency:    0.3919248589
  - # 3
    frequency:    1.2624772047
  - # 4
    frequency:    1.4672487882
  - # 5
    frequency:    1.5219476066
  - # 6
    frequency:    1.6741421242
  - # 7
    frequency:    2.0302388619
  - # 8
    frequency:    2.2658090332
  - # 9
    frequency:    2.5152361028
  - # 10
    frequency:    2.6035323107
  - # 11
    frequency:    2.7279561134
  - # 12
    frequency:    3.3902966155
  - # 13
    frequency:    3.6859563835
  - # 14
    frequency:    4.0741402389
  - # 15
    frequency:    4.1635453776
  - # 16
    frequency:    4.3788695985
  - # 17
    frequency:    4.6816826442
  - # 18
    frequency:    4.8021832443
  - # 19
    frequency:    9.9401568174
  - # 20
    frequency:   26.2708344247
  - # 21
    frequency:   27.5117133994
  - # 22
    frequency:   30.4124091303
  - # 23
    frequency:   36.3585601833
  - # 24
    frequency:   37.3196483426
  - # 25
    frequency:   41.3260439779
  - # 26
    frequency:   42.6319335712
  - # 27
    frequency:   42.7831373185
  - # 28
    frequency:   44.2023146742
  - # 29
    frequency:   46.4523323298
  - # 30
    frequency:   47.1248049795
  - # 31
    frequency:   89.1490240448
  - # 32
    frequency:   92.0901061257
  - # 33
    frequency:   92.2347283260
  - # 34
    frequency:   92.5505454281
  - # 35
    frequency:   93.6508779863
  - # 36
    frequency:   95.9379498536

- q-position: [    0.4850000,    0.4850000,    0.4850000 ]
  distance:    0.0043604
  band:
  - # 1
    frequency:   -0.5042944977
  - # 2
    frequency:    0.3943374720
  - # 3
    frequency:    1.2620511013
  - # 4
    frequency:    1.4666091499
  - # 5
    frequency:    1.5228624685
  - # 6
    frequency:    1.6739814088
  - # 7
    frequency:    2.0300081377
  - # 8
    frequency:    2.2651578420
  - # 9
    frequency:    2.5146536552
  - # 10
    frequency:    2.6024334435
  - # 11
    frequency:    2.7271561935
  - # 12
    frequency:    3.3903302238
  - # 13
    frequency:    3.6848685357
  - # 14
    frequency:    4.0727721513
  - # 15
    frequency:    4.1636500008
  - # 16
    frequency:    4.3784258784
  - # 17
    frequency:    4.6820958729
  - # 18
    frequency:    4.8010729597
  - # 19
    frequency:    9.9407682092
  - # 20
    frequency:   26.2712857550
  - # 21
    frequency:   27.5117362096
  - # 22
    frequency:   30.4124306017
  - # 23
    frequency:   36.3584882392
  - # 24
    frequency:   37.3192057639
  - # 25
    frequency:   41.3259385694
  - # 26
    frequency:   42.6317083546
  - # 27
    frequency:   42.7831365028
  - # 28
    frequency:   44.2022929251
  - # 29
    frequency:   46.4522594200
  - # 30
    frequency:   47.1245989807
  - # 31
    frequency:   89.1490403953
  - # 32
    frequency:   92.0899653095
  - # 33
    frequency:   92.2348847384
  - # 34
    frequency:   92.5511519986
  - # 35
    frequency:   93.6509716160
  - # 36
    frequency:   95.9379982738

- q-position: [    0.4800000,    0.4800000,    0.4800000 ]
  distance:    0.0058138
  band:
  - # 1
    frequency:   -0.5015227593
  - # 2
    frequency:    0.3976796465
  - # 3
    frequency:    1.2614604711
  - # 4
    frequency:    1.4657568813
  - # 5
    frequency:    1.5240893229
  - # 6
    frequency:    1.6737556602
  - # 7
    frequency:    2.0296867074
  - # 8
    frequency:    2.2642460489
  - # 9
    frequency:    2.5138345416
  - # 10
    frequency:    2.6009001534
  - # 11
    frequency:    2.7260375678
  - # 12
    frequency:    3.3903742413
  - # 13
    frequency:    3.6833459599
  - # 14
    frequency:    4.0708651984
  - # 15
    frequency:    4.1637836679
  - # 16
    frequency:    4.3778015551
  - # 17
    frequency:    4.6826437560
  - # 18
    frequency:    4.7995509257
  - # 19
    frequency:    9.9416206964
  - # 20
    frequency:   26.2719156960
  - # 21
    frequency:   27.5117681599
  - # 22
    frequency:   30.4124603704
  - # 23
    frequency:   36.3583887127
  - # 24
    frequency:   37.3185873358
  - # 25
    frequency:   41.3257916662
  - # 26
    frequency:   42.6313938476
  - # 27
    frequency:   42.7831354558
  - # 28
    frequency:   44.2022625002
  - # 29
    frequency:   46.4521573286
  - # 30
    frequency:   47.1243111008
  - # 31
    frequency:   89.1490632576
  - # 32
    frequency:   92.0897690334
  - # 33
    frequency:   92.2351019738
  - # 34
    frequency:   92.5519996011
  - # 35
    frequency:   93.6510995194
  - # 36
    frequency:   95.9380659494

- q-position: [    0.4750000,    0.4750000,    0.4750000 ]
  distance:    0.0072673
  band:
  - # 1
    frequency:   -0.4979563416
  - # 2
    frequency:    0.4019174412
  - # 3
    frequency:    1.2607110649
  - # 4
    frequency:    1.4647262739
  - # 5
    frequency:    1.5255833191
  - # 6
    frequency:    1.6734641321
  - # 7
    frequency:    2.0292760891
  - # 8
    frequency:    2.2630735513
  - # 9
    frequency:    2.5127750025
  - # 10
    frequency:    2.5989376441
  - # 11
    frequency:    2.7246014839
  - # 12
    frequency:    3.3904256464
  - # 13
    frequency:    3.6813890856
  - # 14
    frequency:    4.0684269289
  - # 15
    frequency:    4.1639344708
  - # 16
    frequency:    4.3769938320
  - # 17
    frequency:    4.6832925735
  - # 18
    frequency:    4.7976522746
  - # 19
    frequency:    9.9427108325
  - # 20
    frequency:   26.2727223348
  - # 21
    frequency:   27.5118092647
  - # 22
    frequency:   30.4124981482
  - # 23
    frequency:   36.3582627915
  - # 24
    frequency:   37.3177942382
  - # 25
    frequency:   41.3256039346
  - # 26
    frequency:   42.6309908433
  - # 27
    frequency:   42.7831342722
  - # 28
    frequency:   44.2022234233
  - # 29
    frequency:   46.4520260394
  - # 30
    frequency:   47.1239418557
  - # 31
    frequency:   89.1490926035
  - # 32
    frequency:   92.0895181482
  - # 33
    frequency:   92.2353783302
  - # 34
    frequency:   92.5530866252
  - # 35
    frequency:   93.6512585375
  - # 36
    frequency:   95.9381527679

- q-position: [    0.4700000,    0.4700000,    0.4700000 ]
  distance:    0.0087207
  band:
  - # 1
    frequency:   -0.4935928550
  - # 2
    frequency:    0.4070092689
  - # 3
    frequency:    1.2598100476
  - # 4
    frequency:    1.4635519804
  - # 5
    frequency:    1.5272964658
  - # 6
    frequency:    1.6731058652
  - # 7
    frequency:    2.0287781426
  - # 8
    frequency:    2.2616402482
  - # 9
    frequency:    2.5114700992
  - # 10
    frequency:    2.5965527207
  - # 11
    frequency:    2.7228495253
  - # 12
    frequency:    3.3904805710
  - # 13
    frequency:    3.6789984931
  - # 14
    frequency:    4.0654660519
  - # 15
    frequency:    4.1640881991
  - # 16
    frequency:    4.3759995521
  - # 17
    frequency:    4.6839944300
  - # 18
    frequency:    4.7954262880
  - # 19
    frequency:    9.9440342076
  - # 20
    frequency:   26.2737032232
  - # 21
    frequency:   27.5118595397
  - # 22
    frequency:   30.4125435691
  - # 23
    frequency:   36.3581119911
  - # 24
    frequency:   37.3168279846
  - # 25
    frequency:   41.3253762268
  - # 26
    frequency:   42.6305003572
  - # 27
    frequency:   42.7831330728
  - # 28
    frequency:   44.2021757249
  - # 29
    frequency:   46.4518655334
  - # 30
    frequency:   47.1234919056
  - # 31
    frequency:   89.1491283971
  - # 32
    frequency:   92.0892137265
  - # 33
    frequency:   92.2357116752
  - # 34
    frequency:   92.5544109806
  - # 35
    frequency:   93.6514446351
  - # 36
    frequency:   95.9382585844

- q-position: [    0.4650000,    0.4650000,    0.4650000 ]
  distance:    0.0101742
  band:
  - # 1
    frequency:   -0.4884290037
  - # 2
    frequency:    0.4129071951
  - # 3
    frequency:    1.2587658351
  - # 4
    frequency:    1.4622658102
  - # 5
    frequency:    1.5291810087
  - # 6
    frequency:    1.6726796848
  - # 7
    frequency:    2.0281950036
  - # 8
    frequency:    2.2599460619
  - # 9
    frequency:    2.5099136327
  - # 10
    frequency:    2.5937538773
  - # 11
    frequency:    2.7207835975
  - # 12
    frequency:    3.3905343107
  - # 13
    frequency:    3.6761749355
  - # 14
    frequency:    4.0619919402
  - # 15
    frequency:    4.1642289045
  - # 16
    frequency:    4.3748154989
  - # 17
    frequency:    4.6846837080
  - # 18
    frequency:    4.7929396564
  - # 19
    frequency:    9.9455854641
  - # 20
    frequency:   26.2748553871
  - # 21
    frequency:   27.5119190008
  - # 22
    frequency:   30.4125961928
  - # 23
    frequency:   36.3579381469
  - # 24
    frequency:   37.3156904190
  - # 25
    frequency:   41.3251095783
  - # 26
    frequency:   42.6299236236
  - # 27
    frequency:   42.7831320040
  - # 28
    frequency:   44.2021194421
  - # 29
    frequency:   46.4516757901
  - # 30
    frequency:   47.1229620525
  - # 31
    frequency:   89.1491705944
  - # 32
    frequency:   92.0888570472
  - # 33
    frequency:   92.2360994851
  - # 34
    frequency:   92.5559700834
  - # 35
    frequency:   93.6516529213
  - # 36
    frequency:   95.9383832217

- q-position: [    0.4600000,    0.4600000,    0.4600000 ]
  distance:    0.0116276
  band:
  - # 1
    frequency:   -0.4824603383
  - # 2
    frequency:    0.4195583033
  - # 3
    frequency:    1.2575879032
  - # 4
    frequency:    1.4608947949
  - # 5
    frequency:    1.5311915706
  - # 6
    frequency:    1.6721841960
  - # 7
    frequency:    2.0275290062
  - # 8
    frequency:    2.2579909610
  - # 9
    frequency:    2.5080980438
  - # 10
    frequency:    2.5905514051
  - # 11
    frequency:    2.7184059117
  - # 12
    frequency:    3.3905813353
  - # 13
    frequency:    3.6729193694
  - # 14
    frequency:    4.0580142097
  - # 15
    frequency:    4.1643393952
  - # 16
    frequency:    4.3734387335
  - # 17
    frequency:    4.6852728471
  - # 18
    frequency:    4.7902803871
  - # 19
    frequency:    9.9473583163
  - # 20
    frequency:   26.2761753370
  - # 21
    frequency:   27.5119876612
  - # 22
    frequency:   30.4126555082
  - # 23
    frequency:   36.3577434040
  - # 24
    frequency:   37.3143837134
  - # 25
    frequency:   41.3248052040
  - # 26
    frequency:   42.6292620920
  - # 27
    frequency:   42.7831312374
  - # 28
    frequency:   44.2020546184
  - # 29
    frequency:   46.4514567894
  - # 30
    frequency:   47.1223532372
  - # 31
    frequency:   89.1492191439
  - # 32
    frequency:   92.0884495789
  - # 33
    frequency:   92.2365388904
  - # 34
    frequency:   92.5577608417
  - # 35
    frequency:   93.6518776731
  - # 36
    frequency:   95.9385264704

- q-position: [    0.4550000,    0.4550000,    0.4550000 ]
  distance:    0.0130811
  band:
  - # 1
    frequency:   -0.4756809403
  - # 2
    frequency:    0.4269060432
  - # 3
    frequency:    1.2562865760
  - # 4
    frequency:    1.4594603098
  - # 5
    frequency:    1.5332862637
  - # 6
    frequency:    1.6716177748
  - # 7
    frequency:    2.0267825956
  - # 8
    frequency:    2.2557749862
  - # 9
    frequency:    2.5060142938
  - # 10
    frequency:    2.5869575195
  - # 11
    frequency:    2.7157189670
  - # 12
    frequency:    3.3906152975
  - # 13
    frequency:    3.6692329928
  - # 14
    frequency:    4.0535424069
  - # 15
    frequency:    4.1644016237
  - # 16
    frequency:    4.3718669530
  - # 17
    frequency:    4.6856480527
  - # 18
    frequency:    4.7875617733
  - # 19
    frequency:    9.9493455731
  - # 20
    frequency:   26.2776590799
  - # 21
    frequency:   27.5120655292
  - # 22
    frequency:   30.4127209386
  - # 23
    frequency:   36.3575302055
  - # 24
    frequency:   37.3129103636
  - # 25
    frequency:   41.3244644941
  - # 26
    frequency:   42.6285174221
  - # 27
    frequency:   42.7831309686
  - # 28
    frequency:   44.2019813039
  - # 29
    frequency:   46.4512085134
  - # 30
    frequency:   47.1216665360
  - # 31
    frequency:   89.1492739869
  - # 32
    frequency:   92.0879929608
  - # 33
    frequency:   92.2370267259
  - # 34
    frequency:   92.5597796398
  - # 35
    frequency:   93.6521123640
  - # 36
    frequency:   95.9386880887

- q-position: [    0.4500000,    0.4500000,    0.4500000 ]
  distance:    0.0145345
  band:
  - # 1
    frequency:   -0.4680830243
  - # 2
    frequency:    0.4348914954
  - # 3
    frequency:    1.2548727967
  - # 4
    frequency:    1.4579779155
  - # 5
    frequency:    1.5354271073
  - # 6
    frequency:    1.6709785549
  - # 7
    frequency:    2.0259582333
  - # 8
    frequency:    2.2532982752
  - # 9
    frequency:    2.5036517304
  - # 10
    frequency:    2.5829865027
  - # 11
    frequency:    2.7127255315
  - # 12
    frequency:    3.3906290377
  - # 13
    frequency:    3.6651172939
  - # 14
    frequency:    4.0485858072
  - # 15
    frequency:    4.1643969629
  - # 16
    frequency:    4.3700988504
  - # 17
    frequency:    4.6856663573
  - # 18
    frequency:    4.7849250226
  - # 19
    frequency:    9.9515391644
  - # 20
    frequency:   26.2793021346
  - # 21
    frequency:   27.5121526055
  - # 22
    frequency:   30.4127918467
  - # 23
    frequency:   36.3573012788
  - # 24
    frequency:   37.3112731845
  - # 25
    frequency:   41.3240890088
  - # 26
    frequency:   42.6276914786
  - # 27
    frequency:   42.7831314166
  - # 28
    frequency:   44.2018995548
  - # 29
    frequency:   46.4509309485
  - # 30
    frequency:   47.1209031566
  - # 31
    frequency:   89.1493350571
  - # 32
    frequency:   92.0874889829
  - # 33
    frequency:   92.2375595835
  - # 34
    frequency:   92.5620223224
  - # 35
    frequency:   93.6523496956
  - # 36
    frequency:   95.9388678026

- q-position: [    0.4450000,    0.4450000,    0.4450000 ]
  distance:    0.0159880
  band:
  - # 1
    frequency:   -0.4596564362
  - # 2
    frequency:    0.4434545063
  - # 3
    frequency:    1.2533578894
  - # 4
    frequency:    1.4564576195
  - # 5
    frequency:    1.5375800436
  - # 6
    frequency:    1.6702644084
  - # 7
    frequency:    2.0250582971
  - # 8
    frequency:    2.2505610875
  - # 9
    frequency:    2.5009979447
  - # 10
    frequency:    2.5786548561
  - # 11
    frequency:    2.7094286229
  - # 12
    frequency:    3.3906145835
  - # 13
    frequency:    3.6605741119
  - # 14
    frequency:    4.0431533111
  - # 15
    frequency:    4.1643063801
  - # 16
    frequency:    4.3681344607
  - # 17
    frequency:    4.6851566349
  - # 18
    frequency:    4.7825379622
  - # 19
    frequency:    9.9539301708
  - # 20
    frequency:   26.2810995467
  - # 21
    frequency:   27.5122488797
  - # 22
    frequency:   30.4128675406
  - # 23
    frequency:   36.3570596210
  - # 24
    frequency:   37.3094753053
  - # 25
    frequency:   41.3236804732
  - # 26
    frequency:   42.6267863253
  - # 27
    frequency:   42.7831328226
  - # 28
    frequency:   44.2018094338
  - # 29
    frequency:   46.4506240878
  - # 30
    frequency:   47.1200644342
  - # 31
    frequency:   89.1494022816
  - # 32
    frequency:   92.0869395663
  - # 33
    frequency:   92.2381338675
  - # 34
    frequency:   92.5644841806
  - # 35
    frequency:   93.6525816333
  - # 36
    frequency:   95.9390653056

- q-position: [    0.4400000,    0.4400000,    0.4400000 ]
  distance:    0.0174414
  band:
  - # 1
    frequency:   -0.4503880202
  - # 2
    frequency:    0.4525346620
  - # 3
    frequency:    1.2517533169
  - # 4
    frequency:    1.4549043433
  - # 5
    frequency:    1.5397147632
  - # 6
    frequency:    1.6694729219
  - # 7
    frequency:    2.0240849771
  - # 8
    frequency:    2.2475638272
  - # 9
    frequency:    2.4980386309
  - # 10
    frequency:    2.5739814494
  - # 11
    frequency:    2.7058314889
  - # 12
    frequency:    3.3905631402
  - # 13
    frequency:    3.6556057110
  - # 14
    frequency:    4.0372534165
  - # 15
    frequency:    4.1641105301
  - # 16
    frequency:    4.3659754727
  - # 17
    frequency:    4.6839281091
  - # 18
    frequency:    4.7805862973
  - # 19
    frequency:    9.9565088568
  - # 20
    frequency:   26.2830459070
  - # 21
    frequency:   27.5123543272
  - # 22
    frequency:   30.4129472801
  - # 23
    frequency:   36.3568084819
  - # 24
    frequency:   37.3075201638
  - # 25
    frequency:   41.3232407706
  - # 26
    frequency:   42.6258042180
  - # 27
    frequency:   42.7831354489
  - # 28
    frequency:   44.2017110092
  - # 29
    frequency:   46.4502879336
  - # 30
    frequency:   47.1191518263
  - # 31
    frequency:   89.1494755803
  - # 32
    frequency:   92.0863467425
  - # 33
    frequency:   92.2387458495
  - # 34
    frequency:   92.5671599390
  - # 35
    frequency:   93.6527994458
  - # 36
    frequency:   95.9392802591

- q-position: [    0.4350000,    0.4350000,    0.4350000 ]
  distance:    0.0188949
  band:
  - # 1
    frequency:   -0.4402608146
  - # 2
    frequency:    0.4620720930
  - # 3
    frequency:    1.2500704397
  - # 4
    frequency:    1.4533184608
  - # 5
    frequency:    1.5418044657
  - # 6
    frequency:    1.6686013657
  - # 7
    frequency:    2.0230401716
  - # 8
    frequency:    2.2443070641
  - # 9
    frequency:    2.4947574712
  - # 10
    frequency:    2.5689876443
  - # 11
    frequency:    2.7019375877
  - # 12
    frequency:    3.3904650694
  - # 13
    frequency:    3.6502148726
  - # 14
    frequency:    4.0308942420
  - # 15
    frequency:    4.1637897960
  - # 16
    frequency:    4.3636254917
  - # 17
    frequency:    4.6817890108
  - # 18
    frequency:    4.7792547808
  - # 19
    frequency:    9.9592647073
  - # 20
    frequency:   26.2851353709
  - # 21
    frequency:   27.5124689054
  - # 22
    frequency:   30.4130302835
  - # 23
    frequency:   36.3565513462
  - # 24
    frequency:   37.3054114996
  - # 25
    frequency:   41.3227719357
  - # 26
    frequency:   42.6247475974
  - # 27
    frequency:   42.7831395777
  - # 28
    frequency:   44.2016043558
  - # 29
    frequency:   46.4499225005
  - # 30
    frequency:   47.1181669082
  - # 31
    frequency:   89.1495548669
  - # 32
    frequency:   92.0857126345
  - # 33
    frequency:   92.2393917228
  - # 34
    frequency:   92.5700437466
  - # 35
    frequency:   93.6529937473
  - # 36
    frequency:   95.9395122920

- q-position: [    0.4300000,    0.4300000,    0.4300000 ]
  distance:    0.0203483
  band:
  - # 1
    frequency:   -0.4292530183
  - # 2
    frequency:    0.4720081120
  - # 3
    frequency:    1.2483202836
  - # 4
    frequency:    1.4516963380
  - # 5
    frequency:    1.5438256212
  - # 6
    frequency:    1.6676466592
  - # 7
    frequency:    2.0219253842
  - # 8
    frequency:    2.2407915510
  - # 9
    frequency:    2.4911360770
  - # 10
    frequency:    2.5636973625
  - # 11
    frequency:    2.6977505685
  - # 12
    frequency:    3.3903098511
  - # 13
    frequency:    3.6444050063
  - # 14
    frequency:    4.0240835783
  - # 15
    frequency:    4.1633242995
  - # 16
    frequency:    4.3610902373
  - # 17
    frequency:    4.6785735524
  - # 18
    frequency:    4.7787001371
  - # 19
    frequency:    9.9621864667
  - # 20
    frequency:   26.2873616788
  - # 21
    frequency:   27.5125925502
  - # 22
    frequency:   30.4131157351
  - # 23
    frequency:   36.3562919143
  - # 24
    frequency:   37.3031533474
  - # 25
    frequency:   41.3222761479
  - # 26
    frequency:   42.6236190811
  - # 27
    frequency:   42.7831455094
  - # 28
    frequency:   44.2014895539
  - # 29
    frequency:   46.4495278175
  - # 30
    frequency:   47.1171113672
  - # 31
    frequency:   89.1496400487
  - # 32
    frequency:   92.0850394375
  - # 33
    frequency:   92.2400676540
  - # 34
    frequency:   92.5731291702
  - # 35
    frequency:   93.6531545431
  - # 36
    frequency:   95.9397610013

- q-position: [    0.4250000,    0.4250000,    0.4250000 ]
  distance:    0.0218018
  band:
  - # 1
    frequency:   -0.4173366470
  - # 2
    frequency:    0.4822856957
  - # 3
    frequency:    1.2465133184
  - # 4
    frequency:    1.4500308409
  - # 5
    frequency:    1.5457577592
  - # 6
    frequency:    1.6666053325
  - # 7
    frequency:    2.0207416246
  - # 8
    frequency:    2.2370182390
  - # 9
    frequency:    2.4871540337
  - # 10
    frequency:    2.5581370500
  - # 11
    frequency:    2.6932742531
  - # 12
    frequency:    3.3900860252
  - # 13
    frequency:    3.6381802858
  - # 14
    frequency:    4.0168289508
  - # 15
    frequency:    4.1626939069
  - # 16
    frequency:    4.3583776614
  - # 17
    frequency:    4.6741684576
  - # 18
    frequency:    4.7790245094
  - # 19
    frequency:    9.9652621824
  - # 20
    frequency:   26.2897181796
  - # 21
    frequency:   27.5127251716
  - # 22
    frequency:   30.4132027926
  - # 23
    frequency:   36.3560340817
  - # 24
    frequency:   37.3007500293
  - # 25
    frequency:   41.3217557224
  - # 26
    frequency:   42.6224214549
  - # 27
    frequency:   42.7831535619
  - # 28
    frequency:   44.2013666897
  - # 29
    frequency:   46.4491039319
  - # 30
    frequency:   47.1159869969
  - # 31
    frequency:   89.1497310269
  - # 32
    frequency:   92.0843294020
  - # 33
    frequency:   92.2407698319
  - # 34
    frequency:   92.5764091927
  - # 35
    frequency:   93.6532712781
  - # 36
    frequency:   95.9400259519

- q-position: [    0.4200000,    0.4200000,    0.4200000 ]
  distance:    0.0232552
  band:
  - # 1
    frequency:   -0.4044757554
  - # 2
    frequency:    0.4928498316
  - # 3
    frequency:    1.2446592527
  - # 4
    frequency:    1.4483118005
  - # 5
    frequency:    1.5475832874
  - # 6
    frequency:    1.6654734867
  - # 7
    frequency:    2.0194893156
  - # 8
    frequency:    2.2329882902
  - # 9
    frequency:    2.4827891083
  - # 10
    frequency:    2.5523354772
  - # 11
    frequency:    2.6885126170
  - # 12
    frequency:    3.3897811054
  - # 13
    frequency:    3.6315458137
  - # 14
    frequency:    4.0091376804
  - # 15
    frequency:    4.1618782483
  - # 16
    frequency:    4.3554979770
  - # 17
    frequency:    4.6685270945
  - # 18
    frequency:    4.7802613843
  - # 19
    frequency:    9.9684792502
  - # 20
    frequency:   26.2921978535
  - # 21
    frequency:   27.5128666505
  - # 22
    frequency:   30.4132905953
  - # 23
    frequency:   36.3557819173
  - # 24
    frequency:   37.2982061460
  - # 25
    frequency:   41.3212131028
  - # 26
    frequency:   42.6211576636
  - # 27
    frequency:   42.7831640683
  - # 28
    frequency:   44.2012358551
  - # 29
    frequency:   46.4486509113
  - # 30
    frequency:   47.1147956913
  - # 31
    frequency:   89.1498276973
  - # 32
    frequency:   92.0835848171
  - # 33
    frequency:   92.2414945115
  - # 34
    frequency:   92.5798762166
  - # 35
    frequency:   93.6533328876
  - # 36
    frequency:   95.9403066769

- q-position: [    0.4150000,    0.4150000,    0.4150000 ]
  distance:    0.0247087
  band:
  - # 1
    frequency:   -0.3906240402
  - # 2
    frequency:    0.5036477485
  - # 3
    frequency:    1.2427668478
  - # 4
    frequency:    1.4465264380
  - # 5
    frequency:    1.5492873347
  - # 6
    frequency:    1.6642467562
  - # 7
    frequency:    2.0181682069
  - # 8
    frequency:    2.2287030880
  - # 9
    frequency:    2.4780176895
  - # 10
    frequency:    2.5463233079
  - # 11
    frequency:    2.6834697721
  - # 12
    frequency:    3.3893814588
  - # 13
    frequency:    3.6245078222
  - # 14
    frequency:    4.0010169342
  - # 15
    frequency:    4.1608567683
  - # 16
    frequency:    4.3524635849
  - # 17
    frequency:    4.6616651957
  - # 18
    frequency:    4.7823800118
  - # 19
    frequency:    9.9718244633
  - # 20
    frequency:   26.2947933381
  - # 21
    frequency:   27.5130168336
  - # 22
    frequency:   30.4133782721
  - # 23
    frequency:   36.3555396406
  - # 24
    frequency:   37.2955265683
  - # 25
    frequency:   41.3206508511
  - # 26
    frequency:   42.6198308013
  - # 27
    frequency:   42.7831773756
  - # 28
    frequency:   44.2010971474
  - # 29
    frequency:   46.4481688476
  - # 30
    frequency:   47.1135394385
  - # 31
    frequency:   89.1499299500
  - # 32
    frequency:   92.0828079963
  - # 33
    frequency:   92.2422380540
  - # 34
    frequency:   92.5835220722
  - # 35
    frequency:   93.6533278506
  - # 36
    frequency:   95.9406026779

- q-position: [    0.4100000,    0.4100000,    0.4100000 ]
  distance:    0.0261621
  band:
  - # 1
    frequency:   -0.3757215322
  - # 2
    frequency:    0.5146290538
  - # 3
    frequency:    1.2408437516
  - # 4
    frequency:    1.4446597547
  - # 5
    frequency:    1.5508576040
  - # 6
    frequency:    1.6629202752
  - # 7
    frequency:    2.0167772986
  - # 8
    frequency:    2.2241642477
  - # 9
    frequency:    2.4728155227
  - # 10
    frequency:    2.5401323720
  - # 11
    frequency:    2.6781499496
  - # 12
    frequency:    3.3888721417
  - # 13
    frequency:    3.6170739169
  - # 14
    frequency:    3.9924737624
  - # 15
    frequency:    4.1596088194
  - # 16
    frequency:    4.3492888923
  - # 17
    frequency:    4.6536428917
  - # 18
    frequency:    4.7853035917
  - # 19
    frequency:    9.9752840634
  - # 20
    frequency:   26.2974969549
  - # 21
    frequency:   27.5131755306
  - # 22
    frequency:   30.4134649497
  - # 23
    frequency:   36.3553115984
  - # 24
    frequency:   37.2927164267
  - # 25
    frequency:   41.3200716392
  - # 26
    frequency:   42.6184441012
  - # 27
    frequency:   42.7831938433
  - # 28
    frequency:   44.2009506699
  - # 29
    frequency:   46.4476578596
  - # 30
    frequency:   47.1122203144
  - # 31
    frequency:   89.1500376700
  - # 32
    frequency:   92.0820012638
  - # 33
    frequency:   92.2429969611
  - # 34
    frequency:   92.5873380317
  - # 35
    frequency:   93.6532442448
  - # 36
    frequency:   95.9409134257

- q-position: [    0.4050000,    0.4050000,    0.4050000 ]
  distance:    0.0276156
  band:
  - # 1
    frequency:   -0.3596899088
  - # 2
    frequency:    0.5257457973
  - # 3
    frequency:    1.2388963553
  - # 4
    frequency:    1.4426948966
  - # 5
    frequency:    1.5522842213
  - # 6
    frequency:    1.6614886526
  - # 7
    frequency:    2.0153147736
  - # 8
    frequency:    2.2193736281
  - # 9
    frequency:    2.4671587729
  - # 10
    frequency:    2.5337946098
  - # 11
    frequency:    2.6725574829
  - # 12
    frequency:    3.3882366803
  - # 13
    frequency:    3.6092533750
  - # 14
    frequency:    3.9835151199
  - # 15
    frequency:    4.1581138103
  - # 16
    frequency:    4.3459900150
  - # 17
    frequency:    4.6445433879
  - # 18
    frequency:    4.7889308924
  - # 19