96   
72   

1    
  0.0099993385036323  -0.0000000197803060   0.0001150195174108
  -0.4536931400    0.0000008700    0.0346920000
  -0.0002557900    0.0000000000   -0.0005060700
  -0.0006018900    0.0000000000   -0.0005816600
  -0.0003334500    0.0000000000   -0.0005631800
  -0.0004643800    0.0000000000   -0.0005656500
  -0.0003716300    0.0000000000   -0.0005140000
  -0.0004579400    0.0000000000   -0.0005749000
  -0.0003841200    0.0000000000   -0.0005500200
   0.0004616000   -0.0000000000   -0.0005364600
   0.0006492500   -0.0000000000   -0.0005096400
   0.0005080500   -0.0000000000   -0.0005145400
   0.0006257300   -0.0000000000   -0.0005006700
   0.0004090800   -0.0000000000   -0.0005153400
   0.1795315800   -0.0000003800    0.0384946700
   0.0003829200   -0.0000000000   -0.0004519400
   0.0007382500   -0.0000000000   -0.0005066200
   0.0451887900   -0.0000000800   -0.0138480300
   0.0008496000   -0.0000000000   -0.0000402700
   0.0008686300   -0.0000000000   -0.0000203400
   0.0008715200   -0.0000000000   -0.0000404600
   0.0008196900   -0.0000000000   -0.0000238500
   0.0009383000   -0.0000000000   -0.0000453800
   0.0008703800   -0.0000000000   -0.0000323300
   0.0008763100   -0.0000000000   -0.0000356300
  -0.0003223900    0.0004302000   -0.0007656400
  -0.0003284700    0.0004232100   -0.0007759700
  -0.0003249700    0.0004248300   -0.0007762000
  -0.0003263500    0.0004384400   -0.0007603100
  -0.0002941400    0.0004792400   -0.0008073100
  -0.0002978400    0.0004061600   -0.0007637500
   0.0946009200   -0.0982242200   -0.0404430300
  -0.0002944000    0.0004667800   -0.0007938300
  -0.0003249600   -0.0004248300   -0.0007762000
  -0.0003263500   -0.0004384400   -0.0007603000
  -0.0003223900   -0.0004302000   -0.0007656400
  -0.0003284600   -0.0004232000   -0.0007759700
   0.0946005400    0.0982239000   -0.0404431900
  -0.0002944000   -0.0004667800   -0.0007938300
  -0.0002941400   -0.0004792300   -0.0008073100
  -0.0002978400   -0.0004061600   -0.0007637500
   0.0001687600    0.0004575900    0.0006404900
   0.0000893000    0.0003931500    0.0006648000
   0.0001787400    0.0004499800    0.0006216400
   0.0000800600    0.0004676500    0.0007195600
   0.0002278300    0.0006004800    0.0006055300
  -0.0000275400    0.0002618500    0.0006598400
   0.0003118900    0.0004365100    0.0006254100
   0.0195425300    0.0022548300    0.0076041300
   0.0001787400   -0.0004499800    0.0006216400
   0.0000800700   -0.0004676500    0.0007195700
   0.0001687600   -0.0004575900    0.0006404900
   0.0000893000   -0.0003931500    0.0006648000
   0.0003118900   -0.0004365100    0.0006254100
   0.0195425400   -0.0022549200    0.0076041300
   0.0002278300   -0.0006004800    0.0006055300
  -0.0000275400   -0.0002618500    0.0006598400
  -0.0006193400    0.0000000000    0.0006499100
  -0.0007414700    0.0000000000    0.0006712500
  -0.0006238500    0.0000000000    0.0006460900
  -0.0007163000    0.0000000000    0.0006084500
  -0.0005659600    0.0000000000    0.0006060300
   0.0003427600   -0.0000000100    0.0062688600
  -0.0006259300    0.0000000000    0.0006075400
  -0.0006893700    0.0000000000    0.0006056200
   0.0002877000    0.0001598300    0.0005764000
  -0.0001867500   -0.0000501900   -0.0001643300
   0.0002877000   -0.0001598300    0.0005764000
  -0.0001867500    0.0000501900   -0.0001643300
   0.0001521400    0.0003286000   -0.0001283300
  -0.0000197900   -0.0007204600    0.0006539600
   0.0001521400   -0.0003286000   -0.0001283300
  -0.0000197900    0.0007204600    0.0006539600
   0.0001352800    0.0003010500    0.0002892000
  -0.0007976800    0.0012041100    0.0003057900
   0.0001352800   -0.0003010500    0.0002892000
  -0.0007976700   -0.0012041100    0.0003057900
  -0.0000825400   -0.0000101200    0.0002054700
   0.0000010600    0.0000703900    0.0001171200
  -0.0000825400    0.0000101200    0.0002054700
   0.0000010600   -0.0000703900    0.0001171200
   0.0005031900   -0.0000000000    0.0003458200
   0.0005338500   -0.0000000000    0.0005158500
   0.0000282800   -0.0000000000    0.0001752600
   0.0001350800   -0.0000000000    0.0002752900
   0.0000052400   -0.0000000000    0.0002793200
  -0.0009673400    0.0000000000   -0.0010225200
   0.0000571500   -0.0000000000    0.0002136000
   0.0001341900   -0.0000000000    0.0001416100
   0.0001947900   -0.0001555900   -0.0001184400
  -0.0001503800   -0.0000050900    0.0000797600
   0.0001947900    0.0001555900   -0.0001184400
  -0.0001503800    0.0000050900    0.0000797600
   0.0005954900    0.0002181800    0.0001930000
  -0.0002218500    0.0000159500    0.0000862800
   0.0005954900   -0.0002181800    0.0001930000
  -0.0002218500   -0.0000159500    0.0000862800

1    
 -0.0099993385036323   0.0000000197803060  -0.0001150195174108
   0.4396902300   -0.0000008300   -0.0460496400
  -0.0005840100    0.0000000000   -0.0006169000
  -0.0002386700    0.0000000000   -0.0005404000
  -0.0005047000    0.0000000000   -0.0005597700
  -0.0003739300    0.0000000000   -0.0005572200
  -0.0004683400    0.0000000000   -0.0006072800
  -0.0003795600    0.0000000000   -0.0005472800
  -0.0004548100    0.0000000000   -0.0005725000
   0.0006523400   -0.0000000000   -0.0004504000
   0.0004607500   -0.0000000000   -0.0004806300
   0.0006035200   -0.0000000000   -0.0004757600
   0.0004842600   -0.0000000000   -0.0004900400
   0.0007028400   -0.0000000000   -0.0004760700
  -0.1670435900    0.0000003500   -0.0347092300
   0.0007286000   -0.0000000000   -0.0005387400
   0.0003716200   -0.0000000000   -0.0004836000
  -0.0434849300    0.0000000700    0.0159154900
   0.0008889300   -0.0000000000   -0.0000303600
   0.0008703300   -0.0000000000   -0.0000500900
   0.0008675300   -0.0000000000   -0.0000294300
   0.0009191600   -0.0000000000   -0.0000474800
   0.0008015800   -0.0000000000   -0.0000252600
   0.0008688300   -0.0000000000   -0.0000383800
   0.0008626900   -0.0000000000   -0.0000346600
  -0.0003468100    0.0004181800   -0.0007919800
  -0.0003410800    0.0004247500   -0.0007819000
  -0.0003443000    0.0004239600   -0.0007815800
  -0.0003431700    0.0004099300   -0.0007973200
  -0.0003746000    0.0003693100   -0.0007505400
  -0.0003715800    0.0004417300   -0.0007940100
  -0.0949790300    0.1019954300    0.0402725600
  -0.0003759700    0.0003803900   -0.0007636200
  -0.0003443000   -0.0004239600   -0.0007815800
  -0.0003431600   -0.0004099300   -0.0007973200
  -0.0003468100   -0.0004181800   -0.0007919800
  -0.0003410800   -0.0004247500   -0.0007819000
  -0.0949786300   -0.1019951200    0.0402727300
  -0.0003759700   -0.0003803900   -0.0007636200
  -0.0003746000   -0.0003693100   -0.0007505400
  -0.0003715800   -0.0004417200   -0.0007940100
   0.0001247500    0.0004077500    0.0006458300
   0.0002046400    0.0004727100    0.0006213600
   0.0001153000    0.0004170600    0.0006636400
   0.0002135500    0.0003975700    0.0005663800
   0.0000650600    0.0002641900    0.0006807500
   0.0003215600    0.0006051900    0.0006264400
  -0.0000219100    0.0004315300    0.0006631800
  -0.0186394700   -0.0012142900   -0.0061193700
   0.0001153000   -0.0004170700    0.0006636400
   0.0002135500   -0.0003975700    0.0005663800
   0.0001247500   -0.0004077500    0.0006458300
   0.0002046400   -0.0004727100    0.0006213600
  -0.0000219100   -0.0004315300    0.0006631800
  -0.0186394800    0.0012143800   -0.0061193800
   0.0000650600   -0.0002641900    0.0006807500
   0.0003215700   -0.0006052000    0.0006264400
  -0.0006939700    0.0000000000    0.0005727000
  -0.0005652800    0.0000000000    0.0005584400
  -0.0006839400    0.0000000000    0.0005819400
  -0.0005907700    0.0000000000    0.0006201400
  -0.0007412800    0.0000000000    0.0006240600
  -0.0016004400    0.0000000100   -0.0048814500
  -0.0006815400    0.0000000000    0.0006223400
  -0.0006183700    0.0000000000    0.0006223500
  -0.0003345800   -0.0001746100   -0.0000990000
   0.0001338000    0.0000527100    0.0006499700
  -0.0003345800    0.0001746100   -0.0000990000
   0.0001338000   -0.0000527100    0.0006499700
  -0.0001952400   -0.0003269700    0.0006099500
  -0.0000354900    0.0007246800   -0.0001764800
  -0.0001952400    0.0003269700    0.0006099500
  -0.0000354900   -0.0007246800   -0.0001764800
  -0.0002352500   -0.0002954800    0.0001581000
   0.0006841300   -0.0011936500    0.0001425700
  -0.0002352500    0.0002954800    0.0001581000
   0.0006841200    0.0011936500    0.0001425700
  -0.0000193800    0.0000111900    0.0002480000
  -0.0001024800   -0.0000706800    0.0003352200
  -0.0000193800   -0.0000111900    0.0002480000
  -0.0001024800    0.0000706800    0.0003352200
  -0.0003378600    0.0000000000    0.0000733900
  -0.0003817800    0.0000000000   -0.0001170300
   0.0001221100   -0.0000000000    0.0002209600
   0.0000152900   -0.0000000000    0.0001199700
   0.0001448700   -0.0000000000    0.0001136300
   0.0011069900   -0.0000000000    0.0014095300
   0.0000926100   -0.0000000000    0.0001822700
   0.0000163800   -0.0000000000    0.0002550700
  -0.0001515500    0.0001575600    0.0002875900
   0.0002026200    0.0000061500    0.0000887900
  -0.0001515500   -0.0001575600    0.0002875900
   0.0002026200   -0.0000061500    0.0000887900
  -0.0005481200   -0.0002128800   -0.0000276600
   0.0002725600   -0.0000160800    0.0000817300
  -0.0005481200    0.0002128900   -0.0000276600
   0.0002725600    0.0000160700    0.0000817300

1    
 -0.0000000194277356   0.0099999999999777  -0.0000000082979611
   0.0075868200   -0.5586040700   -0.0068419400
  -0.0004192800    0.0001713300   -0.0005605800
  -0.0004221100    0.0001735700   -0.0005620300
  -0.0004199700    0.0000507500   -0.0005616300
  -0.0004208600    0.0001144900   -0.0005619000
  -0.0004196400    0.0001011400   -0.0005615500
  -0.0004214400    0.0000853800   -0.0005616400
  -0.0004201900    0.0000964800   -0.0005613900
   0.0005547100    0.0000393300   -0.0004954000
   0.0005564500    0.0000173000   -0.0004942800
   0.0005555100    0.0000331600   -0.0004949500
   0.0005565700    0.0000633300   -0.0004947000
   0.0005554400    0.0000188300   -0.0004959600
   0.0000258100    0.0857776300   -0.0002730300
   0.0005540800   -0.0001867700   -0.0004943100
   0.0005575200    0.0001525900   -0.0004948200
   0.0005322600    0.0425519500    0.0012091100
   0.0008699700    0.0000409200   -0.0000366700
   0.0008696300    0.0000225000   -0.0000365700
   0.0008698700    0.0000488100   -0.0000366900
   0.0008696700    0.0000184700   -0.0000367500
   0.0008699700    0.0000446900   -0.0000367200
   0.0008696800    0.0000725700   -0.0000365400
   0.0008699600    0.0000478700   -0.0000365600
  -0.0001426700    0.0002376500   -0.0008590500
  -0.0001310100    0.0002400300   -0.0008375200
  -0.0001267900    0.0002423000   -0.0008206200
  -0.0001332300    0.0002416600   -0.0008365700
  -0.0001514600    0.0002562700   -0.0008362100
  -0.0000907600    0.0002370700   -0.0008219500
  -0.0941609900    0.2232563000    0.0726376400
  -0.0001747600    0.0002395700   -0.0008471000
  -0.0005439300   -0.0006078500   -0.0007359100
  -0.0005371500   -0.0006089600   -0.0007199500
  -0.0005282200   -0.0006126700   -0.0006977100
  -0.0005392100   -0.0006105500   -0.0007190600
   0.0861939900    0.2137133800   -0.0693016100
  -0.0004961000   -0.0006100000   -0.0007093600
  -0.0005193800   -0.0005943800   -0.0007206000
  -0.0005789900   -0.0006131600   -0.0007341700
   0.0003193700    0.0005639200    0.0005817100
   0.0003150800    0.0005441300    0.0005656300
   0.0003125600    0.0005519100    0.0005817400
   0.0003186100    0.0005700100    0.0005952800
   0.0004465600    0.0007656100    0.0005445900
   0.0001643600    0.0004132500    0.0006202700
   0.0001464000    0.0004649300    0.0005815900
   0.0236803400   -0.0046845100    0.0131579900
  -0.0000185700   -0.0003098300    0.0007048000
  -0.0000248400   -0.0002928300    0.0006917200
  -0.0000250100   -0.0003001900    0.0007054800
  -0.0000210800   -0.0003196700    0.0007217400
   0.0001533000   -0.0003932900    0.0007064500
  -0.0232602800   -0.0055605700   -0.0119435800
  -0.0001506900   -0.0001013900    0.0007417600
   0.0001277200   -0.0004482100    0.0006670800
  -0.0006518900   -0.0000755000    0.0006141100
  -0.0006535300   -0.0000339300    0.0006122500
  -0.0006528800   -0.0000851200    0.0006132500
  -0.0006534200   -0.0001396700    0.0006131100
  -0.0006518700   -0.0000962800    0.0006132000
  -0.0006144500    0.0004709800    0.0006112200
  -0.0006530000   -0.0000739900    0.0006133500
  -0.0006530900   -0.0000481100    0.0006139000
  -0.0002092000    0.0000264600    0.0005472500
   0.0001675100    0.0000002500   -0.0000168400
   0.0001586000    0.0000199200   -0.0000624900
  -0.0002152600    0.0000017900    0.0004893600
   0.0003015900    0.0002400000   -0.0002198900
  -0.0001361400   -0.0000469600    0.0004774800
  -0.0003538800    0.0002268700    0.0006949900
   0.0000912400   -0.0000511800    0.0000100400
   0.0001893000   -0.0000082300    0.0001610700
  -0.0001801300    0.0009990200    0.0004368300
  -0.0002885300   -0.0000048800    0.0002887600
   0.0000593100    0.0009703900    0.0000158900
  -0.0000519100    0.0000178500    0.0002702100
  -0.0000489300    0.0000080800    0.0002694300
  -0.0000484100    0.0000193200    0.0001816900
  -0.0000521100    0.0000085400    0.0001825400
   0.0000742800    0.0000356600    0.0001946200
   0.0000724800   -0.0002266900    0.0002008600
   0.0000755300   -0.0000203000    0.0001982600
   0.0000757300    0.0001292500    0.0001992500
   0.0000730000    0.0001801900    0.0002028200
   0.0000777200   -0.0001522800    0.0002013700
   0.0000756500   -0.0001100200    0.0001987400
   0.0000752900    0.0000150700    0.0001980600
   0.0000673800    0.0003472100    0.0003618600
  -0.0000279800   -0.0000072700    0.0000889100
  -0.0000144600    0.0003469100   -0.0001918300
   0.0000729700   -0.0000067500    0.0000807000
   0.0000900400    0.0001552100   -0.0001959900
  -0.0000242500   -0.0000021900    0.0000799100
  -0.0000357400    0.0001491000    0.0003558200
   0.0000697900   -0.0000009500    0.0000889000

1    
  0.0000000194277356  -0.0099999999999777   0.0000000082979611
   0.0076067400    0.5588035400   -0.0068532500
  -0.0004199400    0.0000268000   -0.0005606600
  -0.0004227200    0.0000244900   -0.0005621700
  -0.0004205700    0.0001473700   -0.0005616900
  -0.0004214800    0.0000836600   -0.0005619500
  -0.0004202700    0.0000970000   -0.0005616200
  -0.0004220900    0.0001126500   -0.0005617100
  -0.0004208700    0.0001015700   -0.0005614700
   0.0005555200    0.0000326600   -0.0004951600
   0.0005572800    0.0000546600   -0.0004940500
   0.0005563600    0.0000386200   -0.0004947000
   0.0005574700    0.0000085000   -0.0004944400
   0.0005563300    0.0000532300   -0.0004956900
   0.0000284700   -0.0857057000   -0.0002743100
   0.0005549500    0.0002585700   -0.0004940400
   0.0005584300   -0.0000807500   -0.0004945500
   0.0005335700   -0.0424594000    0.0011991600
   0.0008699300    0.0000514900   -0.0000371500
   0.0008696000    0.0000699600   -0.0000371000
   0.0008698400    0.0000436600   -0.0000371600
   0.0008696200    0.0000739500   -0.0000372100
   0.0008699200    0.0000477300   -0.0000371700
   0.0008696500    0.0000199000   -0.0000371000
   0.0008698900    0.0000445800   -0.0000370200
  -0.0001231100    0.0002442700   -0.0008151100
  -0.0001340600    0.0002420900   -0.0008364900
  -0.0001387600    0.0002393700   -0.0008533100
  -0.0001319900    0.0002404600   -0.0008373600
  -0.0001142200    0.0002259900   -0.0008380000
  -0.0001738200    0.0002447000   -0.0008515900
   0.0865889000   -0.2140681400   -0.0694082700
  -0.0000909400    0.0002415400   -0.0008267600
  -0.0005324600   -0.0006113800   -0.0007029400
  -0.0005388800   -0.0006107200   -0.0007189100
  -0.0005483500   -0.0006067900   -0.0007413200
  -0.0005366600   -0.0006090700   -0.0007198400
  -0.0945773300   -0.2236393100    0.0727666100
  -0.0005804100   -0.0006086600   -0.0007294300
  -0.0005571200   -0.0006253800   -0.0007184900
  -0.0004964100   -0.0006061400   -0.0007042500
   0.0003120500    0.0005524200    0.0005843400
   0.0003159800    0.0005718800    0.0006006000
   0.0003184700    0.0005619000    0.0005836700
   0.0003122100    0.0005449100    0.0005706000
   0.0001863900    0.0003536400    0.0006206200
   0.0004647700    0.0007004400    0.0005459300
   0.0004903300    0.0006453600    0.0005853100
  -0.0229242900    0.0058125500   -0.0120646300
  -0.0000246900   -0.0002990700    0.0007032000
  -0.0000186500   -0.0003171700    0.0007167400
  -0.0000179200   -0.0003109000    0.0007031900
  -0.0000221900   -0.0002911100    0.0006871100
  -0.0001908800   -0.0002121000    0.0007030600
   0.0233420400    0.0049374600    0.0132795600
   0.0001092800   -0.0005126300    0.0006660500
  -0.0001729400   -0.0001602300    0.0007417500
  -0.0006517500   -0.0000880200    0.0006136400
  -0.0006533900   -0.0001295900    0.0006117700
  -0.0006527400   -0.0000783100    0.0006127800
  -0.0006532800   -0.0000237500    0.0006126300
  -0.0006517400   -0.0000672400    0.0006127300
  -0.0006151700   -0.0006345100    0.0006109800
  -0.0006528700   -0.0000894300    0.0006128900
  -0.0006529600   -0.0001153000    0.0006134100
   0.0001586700   -0.0000188800   -0.0000624700
  -0.0002151700   -0.0000007800    0.0004894700
  -0.0002091100   -0.0000254000    0.0005473400
   0.0001675200    0.0000008300   -0.0000168400
  -0.0003537100   -0.0002258300    0.0006950200
   0.0000912500    0.0000521700    0.0000100100
   0.0003015900   -0.0002389400   -0.0002199100
  -0.0001360600    0.0000480600    0.0004775300
  -0.0002884100    0.0000360100    0.0002887700
   0.0000596400   -0.0009393700    0.0000158200
   0.0001895300    0.0000393900    0.0001610100
  -0.0001799400   -0.0009677400    0.0004368100
  -0.0000482600    0.0000118700    0.0001816800
  -0.0000519100    0.0000226400    0.0001825000
  -0.0000517200    0.0000133400    0.0002701700
  -0.0000487500    0.0000231000    0.0002694000
   0.0000744200   -0.0000249900    0.0001947300
   0.0000725600    0.0002373600    0.0002009900
   0.0000756500    0.0000305800    0.0001983600
   0.0000758500   -0.0001189600    0.0001993300
   0.0000731500   -0.0001695200    0.0002028900
   0.0000777700    0.0001629600    0.0002014000
   0.0000757700    0.0001203100    0.0001988300
   0.0000754100   -0.0000047800    0.0001981600
  -0.0000143600   -0.0003562900   -0.0001917900
   0.0000730300   -0.0000026200    0.0000807600
   0.0000673600   -0.0003565600    0.0003618900
  -0.0000279000   -0.0000021100    0.0000889700
  -0.0000357100   -0.0001584800    0.0003558900
   0.0000698600   -0.0000084100    0.0000889200
   0.0000900900   -0.0001645600   -0.0001959000
  -0.0000241800   -0.0000071500    0.0000800000

1    
  0.0001129465313181  -0.0000000074493631   0.0099993621337067
   0.0392790700    0.0000003000   -0.5260713900
  -0.0003644100    0.0000000000   -0.0006317200
  -0.0004447200    0.0000000000   -0.0006463900
  -0.0004225400    0.0000000000   -0.0006214200
  -0.0004277600    0.0000000000   -0.0005549900
  -0.0003746400    0.0000000000   -0.0005872500
  -0.0004367400    0.0000000000   -0.0005589700
  -0.0004110700    0.0000000000   -0.0005484200
   0.0005133800   -0.0000000000   -0.0005787600
   0.0006361400   -0.0000000000   -0.0004240700
   0.0005431800   -0.0000000000   -0.0005008900
   0.0005870000   -0.0000000000   -0.0004933100
   0.0004878500   -0.0000000000   -0.0004695100
   0.0380967900   -0.0000001500    0.1010266200
   0.0005619500   -0.0000000000   -0.0005059700
   0.0006665300   -0.0000000000   -0.0005125800
  -0.0287504500   -0.0000001500    0.2874108500
   0.0008798100   -0.0000000000   -0.0000592100
   0.0008650300   -0.0000000000   -0.0000524900
   0.0008732300   -0.0000000000   -0.0000488900
   0.0008796800   -0.0000000000   -0.0000368700
   0.0008430000   -0.0000000000   -0.0000333400
   0.0008765900   -0.0000000000   -0.0000357000
   0.0008702700   -0.0000000000   -0.0000364200
  -0.0003265200    0.0004319500   -0.0007674800
  -0.0003367000    0.0004294600   -0.0007797300
  -0.0003314600    0.0003979100   -0.0007541100
  -0.0003403900    0.0004166300   -0.0007851700
  -0.0003353800    0.0004077100   -0.0007523300
  -0.0002991200    0.0004103900   -0.0007486400
  -0.0341328500    0.0664207200    0.0674848100
  -0.0002839300    0.0004529400   -0.0007506100
  -0.0003314500   -0.0003979000   -0.0007541100
  -0.0003403900   -0.0004166200   -0.0007851700
  -0.0003265200   -0.0004319500   -0.0007674800
  -0.0003366900   -0.0004294600   -0.0007797300
  -0.0341326000   -0.0664206800    0.0674849200
  -0.0002839300   -0.0004529400   -0.0007506100
  -0.0003353800   -0.0004077100   -0.0007523300
  -0.0002991200   -0.0004103900   -0.0007486400
   0.0001595600    0.0004539100    0.0006475100
   0.0001270800    0.0004359300    0.0006557100
   0.0001388800    0.0003758400    0.0006477700
   0.0001174500    0.0003616400    0.0006264600
   0.0001247500    0.0003405400    0.0006267900
   0.0000278200    0.0002807300    0.0006508600
   0.0001008300    0.0004048600    0.0006036900
  -0.0063641500    0.0047239600   -0.0041362100
   0.0001388800   -0.0003758400    0.0006477700
   0.0001174600   -0.0003616400    0.0006264600
   0.0001595700   -0.0004539100    0.0006475100
   0.0001270800   -0.0004359300    0.0006557100
   0.0001008400   -0.0004048600    0.0006036900
  -0.0063641300   -0.0047239300   -0.0041362000
   0.0001247500   -0.0003405400    0.0006267900
   0.0000278200   -0.0002807300    0.0006508600
  -0.0005388200    0.0000000000    0.0007802400
  -0.0008562800    0.0000000000    0.0007333100
  -0.0006479700    0.0000000000    0.0006147500
  -0.0007101300    0.0000000000    0.0005910200
  -0.0006105500    0.0000000000    0.0007076800
   0.0319220900   -0.0000000700    0.0072328600
  -0.0006339600    0.0000000000    0.0006773300
  -0.0006450000    0.0000000000    0.0006967000
   0.0002241100    0.0004410100    0.0000586300
  -0.0002206000    0.0001398500   -0.0002116900
   0.0002241200   -0.0004410100    0.0000586300
  -0.0002206000   -0.0001398500   -0.0002116800
   0.0000368300    0.0002449900    0.0003803900
  -0.0000595200    0.0001697100    0.0007303200
   0.0000368300   -0.0002449900    0.0003803900
  -0.0000595200   -0.0001697200    0.0007303200
   0.0002338700    0.0002610800    0.0001706400
  -0.0004926900    0.0010822300    0.0003915900
   0.0002338700   -0.0002610800    0.0001706400
  -0.0004926800   -0.0010822300    0.0003915900
  -0.0000584500   -0.0000480100    0.0001808600
  -0.0000210400   -0.0000449500    0.0002239000
  -0.0000584500    0.0000480100    0.0001808600
  -0.0000210400    0.0000449500    0.0002239000
  -0.0001502000    0.0000000000    0.0000685900
  -0.0002408600   -0.0000000000    0.0008465400
   0.0000394500   -0.0000000000    0.0002543800
   0.0001178600   -0.0000000000    0.0003190100
  -0.0001452800    0.0000000000    0.0003829300
   0.0009556400   -0.0000000000    0.0013714000
   0.0000567600   -0.0000000000    0.0001546300
   0.0000923400   -0.0000000000    0.0001310600
   0.0000792800   -0.0001250000    0.0001410800
  -0.0000716500   -0.0000450700    0.0001167900
   0.0000792800    0.0001250000    0.0001410800
  -0.0000716500    0.0000450700    0.0001167900
   0.0003819400   -0.0002874700    0.0003366100
   0.0000057700   -0.0000288400    0.0000158300
   0.0003819400    0.0002874700    0.0003366100
   0.0000057700    0.0000288400    0.0000158300

1    
 -0.0001129465313181   0.0000000074493631  -0.0099993621337067
  -0.0438479400   -0.0000003100    0.5475422800
  -0.0004794200    0.0000000000   -0.0004906300
  -0.0004009700    0.0000000000   -0.0004768500
  -0.0004212000    0.0000000000   -0.0005017600
  -0.0004170300    0.0000000000   -0.0005675400
  -0.0004686000    0.0000000000   -0.0005353300
  -0.0004068200    0.0000000000   -0.0005638600
  -0.0004328300    0.0000000000   -0.0005745300
   0.0005996000   -0.0000000000   -0.0004132600
   0.0004789600   -0.0000000000   -0.0005646600
   0.0005707000   -0.0000000000   -0.0004889900
   0.0005275200   -0.0000000000   -0.0004967500
   0.0006268000   -0.0000000000   -0.0005193900
  -0.0352320500    0.0000001400   -0.1021776500
   0.0005518800   -0.0000000000   -0.0004828800
   0.0004479500   -0.0000000000   -0.0004762800
   0.0321316800    0.0000001600   -0.3066277100
   0.0008600700   -0.0000000000   -0.0000155100
   0.0008740100   -0.0000000000   -0.0000225600
   0.0008661400   -0.0000000000   -0.0000258400
   0.0008596000   -0.0000000000   -0.0000381900
   0.0008962100   -0.0000000000   -0.0000416500
   0.0008628000   -0.0000000000   -0.0000390100
   0.0008689600   -0.0000000000   -0.0000385300
  -0.0003447200    0.0004195500   -0.0007881600
  -0.0003348300    0.0004220500   -0.0007761700
  -0.0003401300    0.0004535900   -0.0008013300
  -0.0003309700    0.0004351700   -0.0007709000
  -0.0003361000    0.0004443100   -0.0008042300
  -0.0003722400    0.0004411200   -0.0008074500
   0.0334661900   -0.0653617700   -0.0708740100
  -0.0003877800    0.0003982600   -0.0008054700
  -0.0003401300   -0.0004535900   -0.0008013300
  -0.0003309700   -0.0004351700   -0.0007709000
  -0.0003447200   -0.0004195500   -0.0007881600
  -0.0003348300   -0.0004220400   -0.0007761700
   0.0334659400    0.0653617400   -0.0708741200
  -0.0003877800   -0.0003982500   -0.0008054600
  -0.0003361000   -0.0004443000   -0.0008042300
  -0.0003722400   -0.0004411200   -0.0008074500
   0.0001341900    0.0004089500    0.0006407400
   0.0001662000    0.0004265300    0.0006328600
   0.0001548900    0.0004871400    0.0006408700
   0.0001754900    0.0005010200    0.0006619600
   0.0001695300    0.0005229100    0.0006610400
   0.0002656500    0.0005821500    0.0006367100
   0.0001941600    0.0004570400    0.0006832600
   0.0065968000   -0.0038216800    0.0054432300
   0.0001548900   -0.0004871400    0.0006408700
   0.0001754900   -0.0005010200    0.0006619600
   0.0001341900   -0.0004089500    0.0006407400
   0.0001662000   -0.0004265300    0.0006328600
   0.0001941600   -0.0004570500    0.0006832600
   0.0065967800    0.0038216400    0.0054432200
   0.0001695300   -0.0005229100    0.0006610400
   0.0002656500   -0.0005821500    0.0006367100
  -0.0007651300    0.0000000000    0.0004482600
  -0.0004533900    0.0000000000    0.0004942900
  -0.0006573400    0.0000000000    0.0006113100
  -0.0005961600    0.0000000000    0.0006351500
  -0.0006957400    0.0000000000    0.0005164700
  -0.0327635300    0.0000000700   -0.0056986800
  -0.0006716600    0.0000000000    0.0005480300
  -0.0006602300    0.0000000000    0.0005278400
  -0.0002641400   -0.0004336800    0.0004269800
   0.0001668600   -0.0001439000    0.0006946900
  -0.0002641400    0.0004336800    0.0004269800
   0.0001668600    0.0001439000    0.0006946900
  -0.0000899000   -0.0002463100    0.0001014100
   0.0000143600   -0.0001725000   -0.0002492400
  -0.0000899000    0.0002463100    0.0001014100
   0.0000143600    0.0001725000   -0.0002492400
  -0.0003301000   -0.0002579000    0.0002863400
   0.0003891000   -0.0010747600    0.0000608200
  -0.0003301000    0.0002579000    0.0002863400
   0.0003891000    0.0010747500    0.0000608100
  -0.0000417900    0.0000479500    0.0002679900
  -0.0000786700    0.0000454800    0.0002257200
  -0.0000417900   -0.0000479500    0.0002679900
  -0.0000786700   -0.0000454800    0.0002257200
   0.0003027400   -0.0000000000    0.0003290700
   0.0003775100   -0.0000000000   -0.0004291300
   0.0001111800   -0.0000000000    0.0001427900
   0.0000344600   -0.0000000000    0.0000778100
   0.0002996000   -0.0000000000    0.0000117400
  -0.0008202200    0.0000000000   -0.0009867800
   0.0000952700   -0.0000000000    0.0002420900
   0.0000587300   -0.0000000000    0.0002655700
  -0.0000286100    0.0001219400    0.0000262600
   0.0001194500    0.0000451700    0.0000524900
  -0.0000286100   -0.0001219400    0.0000262600
   0.0001194500   -0.0000451700    0.0000524900
  -0.0003315600    0.0002935000   -0.0001700600
   0.0000427500    0.0000290900    0.0001543600
  -0.0003315600   -0.0002935000   -0.0001700600
   0.0000427500   -0.0000290900    0.0001543600

9    
  0.0099993385036323  -0.0000000197803060   0.0001150195174108
  -0.0005154900    0.0000000000   -0.0006047800
  -0.0003261300    0.0000000000   -0.0004843600
  -0.0004674300    0.0000000000   -0.0005754600
  -0.0003482400    0.0000000000   -0.0005331700
  -0.0005662900    0.0000000000   -0.0006291500
   0.1672852300   -0.0000003500    0.0329605100
  -0.0005909800    0.0000000000   -0.0005558200
  -0.0002378000    0.0000000000   -0.0004551600
  -0.5054919800    0.0000009800    0.0267745900
   0.0006643800   -0.0000000000   -0.0004705500
   0.0002040000   -0.0000000000   -0.0004500700
   0.0008414200   -0.0000000000   -0.0005462600
   0.0004413000   -0.0000000000   -0.0004646800
   0.0007233700   -0.0000000000   -0.0003633200
   0.0004526400   -0.0000000000   -0.0005258900
   0.0006220800   -0.0000000000   -0.0004812200
   0.0007973300   -0.0000000000   -0.0000070900
   0.0009019600   -0.0000000000   -0.0000088500
   0.0008589500   -0.0000000000   -0.0000338400
   0.0008775700   -0.0000000000   -0.0000359800
   0.0008664100   -0.0000000000   -0.0000321200
   0.0058068400   -0.0000000100    0.0017629000
   0.0008664200   -0.0000000000   -0.0000234300
   0.0008700300   -0.0000000000   -0.0000400400
  -0.0003939100    0.0004253800   -0.0008141400
  -0.0003571800    0.0003927800   -0.0007933200
  -0.0003524300    0.0004596100   -0.0007719800
   0.0218312500    0.0032460100    0.0098545300
  -0.0003466700    0.0004217300   -0.0007806900
  -0.0003419700    0.0004208700   -0.0007825200
  -0.0003479100    0.0004026500   -0.0008075400
  -0.0003427400    0.0004344200   -0.0007903800
  -0.0003524300   -0.0004596100   -0.0007719800
   0.0218312600   -0.0032461100    0.0098545300
  -0.0003939100   -0.0004253800   -0.0008141400
  -0.0003571800   -0.0003927800   -0.0007933200
  -0.0003479000   -0.0004026500   -0.0008075300
  -0.0003427400   -0.0004344200   -0.0007903800