nqpoint: 404    
npath: 4      
natom: 2      
phonon:
- q-position: [    0.0000000,    0.0000000,    0.0000000 ]
  distance:    0.0000000
  band:
  - # 1
    frequency:    0.0013262671
  - # 2
    frequency:    0.0013262671
  - # 3
    frequency:    0.0014280148
  - # 4
    frequency:    1.2473019101
  - # 5
    frequency:    1.2473019101
  - # 6
    frequency:    3.7236327636

- q-position: [    0.0050000,    0.0025000,    0.0075000 ]
  distance:    0.0018212
  band:
  - # 1
    frequency:    0.0401595138
  - # 2
    frequency:    0.0413865965
  - # 3
    frequency:    0.0621757404
  - # 4
    frequency:    1.2503002595
  - # 5
    frequency:    1.2507522971
  - # 6
    frequency:    3.7246443423

- q-position: [    0.0100000,    0.0050000,    0.0150000 ]
  distance:    0.0036424
  band:
  - # 1
    frequency:    0.0800592473
  - # 2
    frequency:    0.0824392504
  - # 3
    frequency:    0.1242614558
  - # 4
    frequency:    1.2592384280
  - # 5
    frequency:    1.2610403291
  - # 6
    frequency:    3.7276691520

- q-position: [    0.0150000,    0.0075000,    0.0225000 ]
  distance:    0.0054636
  band:
  - # 1
    frequency:    0.1195256635
  - # 2
    frequency:    0.1229173791
  - # 3
    frequency:    0.1862227395
  - # 4
    frequency:    1.2739486232
  - # 5
    frequency:    1.2779793851
  - # 6
    frequency:    3.7326775601

- q-position: [    0.0200000,    0.0100000,    0.0300000 ]
  distance:    0.0072848
  band:
  - # 1
    frequency:    0.1583642728
  - # 2
    frequency:    0.1625777341
  - # 3
    frequency:    0.2479928689
  - # 4
    frequency:    1.2941604470
  - # 5
    frequency:    1.3012676420
  - # 6
    frequency:    3.7396206618

- q-position: [    0.0250000,    0.0125000,    0.0375000 ]
  distance:    0.0091060
  band:
  - # 1
    frequency:    0.1964174489
  - # 2
    frequency:    0.2012354913
  - # 3
    frequency:    0.3095109334
  - # 4
    frequency:    1.3195139733
  - # 5
    frequency:    1.3305017286
  - # 6
    frequency:    3.7484309913

- q-position: [    0.0300000,    0.0150000,    0.0450000 ]
  distance:    0.0109273
  band:
  - # 1
    frequency:    0.2335644296
  - # 2
    frequency:    0.2387656779
  - # 3
    frequency:    0.3707195989
  - # 4
    frequency:    1.3495764629
  - # 5
    frequency:    1.3651950983
  - # 6
    frequency:    3.7590234900

- q-position: [    0.0350000,    0.0175000,    0.0525000 ]
  distance:    0.0127485
  band:
  - # 1
    frequency:    0.2697203585
  - # 2
    frequency:    0.2751003320
  - # 3
    frequency:    0.4315650262
  - # 4
    frequency:    1.3838612369
  - # 5
    frequency:    1.4047997795
  - # 6
    frequency:    3.7712967072

- q-position: [    0.0400000,    0.0200000,    0.0600000 ]
  distance:    0.0145697
  band:
  - # 1
    frequency:    0.3048324655
  - # 2
    frequency:    0.3102204461
  - # 3
    frequency:    0.4919969348
  - # 4
    frequency:    1.4218470769
  - # 5
    frequency:    1.4487295501
  - # 6
    frequency:    3.7851342016

- q-position: [    0.0450000,    0.0225000,    0.0675000 ]
  distance:    0.0163909
  band:
  - # 1
    frequency:    0.3388743028
  - # 2
    frequency:    0.3441448007
  - # 3
    frequency:    0.5519686247
  - # 4
    frequency:    1.4629966099
  - # 5
    frequency:    1.4963823695
  - # 6
    frequency:    3.8004061110

- q-position: [    0.0500000,    0.0250000,    0.0750000 ]
  distance:    0.0182121
  band:
  - # 1
    frequency:    0.3718392366
  - # 2
    frequency:    0.3769180146
  - # 3
    frequency:    0.6114369467
  - # 4
    frequency:    1.5067724682
  - # 5
    frequency:    1.5471601906
  - # 6
    frequency:    3.8169708521

- q-position: [    0.0550000,    0.0275000,    0.0825000 ]
  distance:    0.0200333
  band:
  - # 1
    frequency:    0.4037342106
  - # 2
    frequency:    0.4085996356
  - # 3
    frequency:    0.6703622288
  - # 4
    frequency:    1.5526504812
  - # 5
    frequency:    1.6004849260
  - # 6
    frequency:    3.8346769137

- q-position: [    0.0600000,    0.0300000,    0.0900000 ]
  distance:    0.0218545
  band:
  - # 1
    frequency:    0.4345744499
  - # 2
    frequency:    0.4392553420
  - # 3
    frequency:    0.7287081647
  - # 4
    frequency:    1.6001296393
  - # 5
    frequency:    1.6558101153
  - # 6
    frequency:    3.8533647062

- q-position: [    0.0650000,    0.0325000,    0.0975000 ]
  distance:    0.0236757
  band:
  - # 1
    frequency:    0.4643794144
  - # 2
    frequency:    0.4689506170
  - # 3
    frequency:    0.7864416621
  - # 4
    frequency:    1.6487389769
  - # 5
    frequency:    1.7126284914
  - # 6
    frequency:    3.8728684319

- q-position: [    0.0700000,    0.0350000,    0.1050000 ]
  distance:    0.0254969
  band:
  - # 1
    frequency:    0.4931700276
  - # 2
    frequency:    0.4977467534
  - # 3
    frequency:    0.8435326507
  - # 4
    frequency:    1.6980417794
  - # 5
    frequency:    1.7704760631
  - # 6
    frequency:    3.8930179445

- q-position: [    0.0750000,    0.0375000,    0.1125000 ]
  distance:    0.0273181
  band:
  - # 1
    frequency:    0.5209670279
  - # 2
    frequency:    0.5256987758
  - # 3
    frequency:    0.8999538454
  - # 4
    frequency:    1.7476376481
  - # 5
    frequency:    1.8289335082
  - # 6
    frequency:    3.9136405674

- q-position: [    0.0800000,    0.0400000,    0.1200000 ]
  distance:    0.0291393
  band:
  - # 1
    frequency:    0.5477902088
  - # 2
    frequency:    0.5528547814
  - # 3
    frequency:    0.9556804654
  - # 4
    frequency:    1.7971629691
  - # 5
    frequency:    1.8876256635
  - # 6
    frequency:    3.9345628465

- q-position: [    0.0850000,    0.0425000,    0.1275000 ]
  distance:    0.0309606
  band:
  - # 1
    frequency:    0.5736583002
  - # 2
    frequency:    0.5792562325
  - # 3
    frequency:    1.0106899109
  - # 4
    frequency:    1.8462902773
  - # 5
    frequency:    1.9462197918
  - # 6
    frequency:    3.9556122174

- q-position: [    0.0900000,    0.0450000,    0.1350000 ]
  distance:    0.0327818
  band:
  - # 1
    frequency:    0.5985892690
  - # 2
    frequency:    0.6049388186
  - # 3
    frequency:    1.0649614026
  - # 4
    frequency:    1.8947269166
  - # 5
    frequency:    2.0044231503
  - # 6
    frequency:    3.9766185691

- q-position: [    0.0950000,    0.0475000,    0.1425000 ]
  distance:    0.0346030
  band:
  - # 1
    frequency:    0.6226008630
  - # 2
    frequency:    0.6299336061
  - # 3
    frequency:    1.1184755891
  - # 4
    frequency:    1.9422133030
  - # 5
    frequency:    2.0619802404
  - # 6
    frequency:    3.9974156934

- q-position: [    0.1000000,    0.0500000,    0.1500000 ]
  distance:    0.0364242
  band:
  - # 1
    frequency:    0.6457112642
  - # 2
    frequency:    0.6542682777
  - # 3
    frequency:    1.1712141304
  - # 4
    frequency:    1.9885210075
  - # 5
    frequency:    2.1186699869
  - # 6
    frequency:    4.0178426105

- q-position: [    0.1050000,    0.0525000,    0.1575000 ]
  distance:    0.0382454
  band:
  - # 1
    frequency:    0.6679397602
  - # 2
    frequency:    0.6779683388
  - # 3
    frequency:    1.2231592673
  - # 4
    frequency:    2.0334508068
  - # 5
    frequency:    2.1743030018
  - # 6
    frequency:    4.0377447676

- q-position: [    0.1100000,    0.0550000,    0.1650000 ]
  distance:    0.0400666
  band:
  - # 1
    frequency:    0.6893073726
  - # 2
    frequency:    0.7010582135
  - # 3
    frequency:    1.2742933836
  - # 4
    frequency:    2.0768307898
  - # 5
    frequency:    2.2287190120
  - # 6
    frequency:    4.0569751070

- q-position: [    0.1150000,    0.0575000,    0.1725000 ]
  distance:    0.0418878
  band:
  - # 1
    frequency:    0.7098374061
  - # 2
    frequency:    0.7235621916
  - # 3
    frequency:    1.3245985725
  - # 4
    frequency:    2.1185145732
  - # 5
    frequency:    2.2817844872
  - # 6
    frequency:    4.0753950057

- q-position: [    0.1200000,    0.0600000,    0.1800000 ]
  distance:    0.0437090
  band:
  - # 1
    frequency:    0.7295558958
  - # 2
    frequency:    0.7455052052
  - # 3
    frequency:    1.3740562145
  - # 4
    frequency:    2.1583796464
  - # 5
    frequency:    2.3333904705
  - # 6
    frequency:    4.0928750896

- q-position: [    0.1250000,    0.0625000,    0.1875000 ]
  distance:    0.0455302
  band:
  - # 1
    frequency:    0.7484919426
  - # 2
    frequency:    0.7669134315
  - # 3
    frequency:    1.4226465788
  - # 4
    frequency:    2.1963258517
  - # 5
    frequency:    2.3834505974
  - # 6
    frequency:    4.1092959259

- q-position: [    0.1300000,    0.0650000,    0.1950000 ]
  distance:    0.0473514
  band:
  - # 1
    frequency:    0.7666779342
  - # 2
    frequency:    0.7878147216
  - # 3
    frequency:    1.4703484541
  - # 4
    frequency:    2.2322739924
  - # 5
    frequency:    2.4318992789
  - # 6
    frequency:    4.1245486001

- q-position: [    0.1350000,    0.0675000,    0.2025000 ]
  distance:    0.0491727
  band:
  - # 1
    frequency:    0.7841496494
  - # 2
    frequency:    0.8082388624
  - # 3
    frequency:    1.5171388199
  - # 4
    frequency:    2.2661645553
  - # 5
    frequency:    2.4786900199
  - # 6
    frequency:    4.1385351841

- q-position: [    0.1400000,    0.0700000,    0.2100000 ]
  distance:    0.0509939
  band:
  - # 1
    frequency:    0.8009462500
  - # 2
    frequency:    0.8282176778
  - # 3
    frequency:    1.5629925660
  - # 4
    frequency:    2.2979565322
  - # 5
    frequency:    2.5237938444
  - # 6
    frequency:    4.1511691010

- q-position: [    0.1450000,    0.0725000,    0.2175000 ]
  distance:    0.0528151
  band:
  - # 1
    frequency:    0.8171101634
  - # 2
    frequency:    0.8477849798
  - # 3
    frequency:    1.6078822679
  - # 4
    frequency:    2.3276263206
  - # 5
    frequency:    2.5671977975
  - # 6
    frequency:    4.1623753950

- q-position: [    0.1500000,    0.0750000,    0.2250000 ]
  distance:    0.0546363
  band:
  - # 1
    frequency:    0.8326868591
  - # 2
    frequency:    0.8669763769
  - # 3
    frequency:    1.6517780257
  - # 4
    frequency:    2.3551666897
  - # 5
    frequency:    2.6089034998
  - # 6
    frequency:    4.1720909114

- q-position: [    0.1550000,    0.0775000,    0.2325000 ]
  distance:    0.0564575
  band:
  - # 1
    frequency:    0.8477245266
  - # 2
    frequency:    0.8858289529
  - # 3
    frequency:    1.6946473737
  - # 4
    frequency:    2.3805857916
  - # 5
    frequency:    2.6489257314
  - # 6
    frequency:    4.1802643943

- q-position: [    0.1600000,    0.0800000,    0.2400000 ]
  distance:    0.0582787
  band:
  - # 1
    frequency:    0.8622736577
  - # 2
    frequency:    0.9043808256
  - # 3
    frequency:    1.7364552651
  - # 4
    frequency:    2.4039062063
  - # 5
    frequency:    2.6872910259
  - # 6
    frequency:    4.1868565061

- q-position: [    0.1650000,    0.0825000,    0.2475000 ]
  distance:    0.0600999
  band:
  - # 1
    frequency:    0.8763865421
  - # 2
    frequency:    0.9226706012
  - # 3
    frequency:    1.7771641380
  - # 4
    frequency:    2.4251640050
  - # 5
    frequency:    2.7240362603
  - # 6
    frequency:    4.1918397750

- q-position: [    0.1700000,    0.0850000,    0.2550000 ]
  distance:    0.0619211
  band:
  - # 1
    frequency:    0.8901166839
  - # 2
    frequency:    0.9407367374
  - # 3
    frequency:    1.8167340635
  - # 4
    frequency:    2.4444078213
  - # 5
    frequency:    2.7592072303
  - # 6
    frequency:    4.1951984736

- q-position: [    0.1750000,    0.0875000,    0.2625000 ]
  distance:    0.0637423
  band:
  - # 1
    frequency:    0.9035181476
  - # 2
    frequency:    0.9586168344
  - # 3
    frequency:    1.8551229777
  - # 4
    frequency:    2.4616979193
  - # 5
    frequency:    2.7928572043
  - # 6
    frequency:    4.1969284324

- q-position: [    0.1800000,    0.0900000,    0.2700000 ]
  distance:    0.0655635
  band:
  - # 1
    frequency:    0.9166448469
  - # 2
    frequency:    0.9763468733
  - # 3
    frequency:    1.8922869953
  - # 4
    frequency:    2.4771052528
  - # 5
    frequency:    2.8250454559
  - # 6
    frequency:    4.1970367895

- q-position: [    0.1850000,    0.0925000,    0.2775000 ]
  distance:    0.0673847
  band:
  - # 1
    frequency:    0.9295497876
  - # 2
    frequency:    0.9939604214
  - # 3
    frequency:    1.9281808002
  - # 4
    frequency:    2.4907105053
  - # 5
    frequency:    2.8558357794
  - # 6
    frequency:    4.1955416793

- q-position: [    0.1900000,    0.0950000,    0.2850000 ]
  distance:    0.0692060
  band:
  - # 1
    frequency:    0.9422842820
  - # 2
    frequency:    1.0114878312
  - # 3
    frequency:    1.9627581052
  - # 4
    frequency:    2.5026031091
  - # 5
    frequency:    2.8852949970
  - # 6
    frequency:    4.1924718583

- q-position: [    0.1950000,    0.0975000,    0.2925000 ]
  distance:    0.0710272
  band:
  - # 1
    frequency:    0.9548971503
  - # 2
    frequency:    1.0289554529
  - # 3
    frequency:    1.9959721688
  - # 4
    frequency:    2.5128802376
  - # 5
    frequency:    2.9134914739
  - # 6
    frequency:    4.1878662702

- q-position: [    0.2000000,    0.1000000,    0.3000000 ]
  distance:    0.0728484
  band:
  - # 1
    frequency:    0.9674339295
  - # 2
    frequency:    1.0463848896
  - # 3
    frequency:    2.0277763564
  - # 4
    frequency:    2.5216457694
  - # 5
    frequency:    2.9404936612
  - # 6
    frequency:    4.1817735463

- q-position: [    0.2050000,    0.1025000,    0.3075000 ]
  distance:    0.0746696
  band:
  - # 1
    frequency:    0.9799361091
  - # 2
    frequency:    1.0637923154
  - # 3
    frequency:    2.0581247275
  - # 4
    frequency:    2.5290092234
  - # 5
    frequency:    2.9663686891
  - # 6
    frequency:    4.1742514421

- q-position: [    0.2100000,    0.1050000,    0.3150000 ]
  distance:    0.0764908
  band:
  - # 1
    frequency:    0.9924404140
  - # 2
    frequency:    1.0811878824
  - # 3
    frequency:    2.0869726320
  - # 4
    frequency:    2.5350846654
  - # 5
    frequency:    2.9911810398
  - # 6
    frequency:    4.1653662065

- q-position: [    0.2150000,    0.1075000,    0.3225000 ]
  distance:    0.0783120
  band:
  - # 1
    frequency:    1.0049781567
  - # 2
    frequency:    1.0985752345
  - # 3
    frequency:    2.1142772970
  - # 4
    frequency:    2.5399895881
  - # 5
    frequency:    3.0149913240
  - # 6
    frequency:    4.1551918830

- q-position: [    0.2200000,    0.1100000,    0.3300000 ]
  distance:    0.0801332
  band:
  - # 1
    frequency:    1.0175746777
  - # 2
    frequency:    1.1159511476
  - # 3
    frequency:    2.1399983892
  - # 4
    frequency:    2.5438437690
  - # 5
    frequency:    3.0378551886
  - # 6
    frequency:    4.1438095432

- q-position: [    0.2250000,    0.1125000,    0.3375000 ]
  distance:    0.0819544
  band:
  - # 1
    frequency:    1.0302488922
  - # 2
    frequency:    1.1333053085
  - # 3
    frequency:    2.1640985399
  - # 4
    frequency:    2.5467681102
  - # 5
    frequency:    3.0598223728
  - # 6
    frequency:    4.1313064538

- q-position: [    0.2300000,    0.1150000,    0.3450000 ]
  distance:    0.0837756
  band:
  - # 1
    frequency:    1.0430129595
  - # 2
    frequency:    1.1506202407
  - # 3
    frequency:    2.1865438282
  - # 4
    frequency:    2.5488834676
  - # 5
    frequency:    3.0809359253
  - # 6
    frequency:    4.1177751821

- q-position: [    0.2350000,    0.1175000,    0.3525000 ]
  distance:    0.0855968
  band:
  - # 1
    frequency:    1.0558720870
  - # 2
    frequency:    1.1678713834
  - # 3
    frequency:    2.2073042242
  - # 4
    frequency:    2.5503094784
  - # 5
    frequency:    3.1012315813
  - # 6
    frequency:    4.1033126504

- q-position: [    0.2400000,    0.1200000,    0.3600000 ]
  distance:    0.0874180
  band:
  - # 1
    frequency:    1.0688244773
  - # 2
    frequency:    1.1850273201
  - # 3
    frequency:    2.2263540026
  - # 4
    frequency:    2.5511633953
  - # 5
    frequency:    3.1207372839
  - # 6
    frequency:    4.0880191551

- q-position: [    0.2450000,    0.1225000,    0.3675000 ]
  distance:    0.0892393
  band:
  - # 1
    frequency:    1.0818614228
  - # 2
    frequency:    1.2020501537
  - # 3
    frequency:    2.2436721443
  - # 4
    frequency:    2.5515589407
  - # 5
    frequency:    3.1394728208
  - # 6
    frequency:    4.0719973729

- q-position: [    0.2500000,    0.1250000,    0.3750000 ]
  distance:    0.0910605
  band:
  - # 1
    frequency:    1.0949675465
  - # 2
    frequency:    1.2188960162
  - # 3
    frequency:    2.2592427502
  - # 4
    frequency:    2.5516051930
  - # 5
    frequency:    3.1574495315
  - # 6
    frequency:    4.0553513896

- q-position: [    0.2550000,    0.1275000,    0.3825000 ]
  distance:    0.0928817
  band:
  - # 1
    frequency:    1.1081211844
  - # 2
    frequency:    1.2355157009
  - # 3
    frequency:    2.2730554905
  - # 4
    frequency:    2.5514055193
  - # 5
    frequency:    3.1746700258
  - # 6
    frequency:    4.0381857926

- q-position: [    0.2600000,    0.1300000,    0.3900000 ]
  distance:    0.0947029
  band:
  - # 1
    frequency:    1.1212948988
  - # 2
    frequency:    1.2518553992
  - # 3
    frequency:    2.2851061135
  - # 4
    frequency:    2.5510565713
  - # 5
    frequency:    3.1911278485
  - # 6
    frequency:    4.0206048838

- q-position: [    0.2650000,    0.1325000,    0.3975000 ]
  distance:    0.0965241
  band:
  - # 1
    frequency:    1.1344561094
  - # 2
    frequency:    1.2678575261
  - # 3
    frequency:    2.2953970263
  - # 4
    frequency:    2.5506473594
  - # 5
    frequency:    3.2068070175
  - # 6
    frequency:    4.0027120756

- q-position: [    0.2700000,    0.1350000,    0.4050000 ]
  distance:    0.0983453
  band:
  - # 1
    frequency:    1.1475678223
  - # 2
    frequency:    1.2834616133
  - # 3
    frequency:    2.3039379487
  - # 4
    frequency:    2.5502584233
  - # 5
    frequency:    3.2216813717
  - # 6
    frequency:    3.9846095428

- q-position: [    0.2750000,    0.1375000,    0.4125000 ]
  distance:    0.1001665
  band:
  - # 1
    frequency:    1.1605894377
  - # 2
    frequency:    1.2986052529
  - # 3
    frequency:    2.3107466235
  - # 4
    frequency:    2.5499611157
  - # 5
    frequency:    3.2357136731
  - # 6
    frequency:    3.9663982017

- q-position: [    0.2800000,    0.1400000,    0.4200000 ]
  distance:    0.1019877
  band:
  - # 1
    frequency:    1.1734776129
  - # 2
    frequency:    1.3132250737
  - # 3
    frequency:    2.3158495496
  - # 4
    frequency:    2.5498170152
  - # 5
    frequency:    3.2488544354
  - # 6
    frequency:    3.9481780813

- q-position: [    0.2850000,    0.1425000,    0.4275000 ]
  distance:    0.1038089
  band:
  - # 1
    frequency:    1.1861871549
  - # 2
    frequency:    1.3272577349
  - # 3
    frequency:    2.3192826832
  - # 4
    frequency:    2.5498774847
  - # 5
    frequency:    3.2610404871
  - # 6
    frequency:    3.9300491260

- q-position: [    0.2900000,    0.1450000,    0.4350000 ]
  distance:    0.1056301
  band:
  - # 1
    frequency:    1.1986719193
  - # 2
    frequency:    1.3406409255
  - # 3
    frequency:    2.3210920441
  - # 4
    frequency:    2.5501833872
  - # 5
    frequency:    3.2721933312
  - # 6
    frequency:    3.9121124274

- q-position: [    0.2950000,    0.1475000,    0.4425000 ]
  distance:    0.1074514
  band:
  - # 1
    frequency:    1.2108856917
  - # 2
    frequency:    1.3533143573
  - # 3
    frequency:    2.3213341503
  - # 4
    frequency:    2.5507649713
  - # 5
    frequency:    3.2822174402
  - # 6
    frequency:    3.8944718093

- q-position: [    0.3000000,    0.1500000,    0.4500000 ]
  distance:    0.1092726
  band:
  - # 1
    frequency:    1.2227830286
  - # 2
    frequency:    1.3652207463
  - # 3
    frequency:    2.3200762117
  - # 4
    frequency:    2.5516419304
  - # 5
    frequency:    3.2909987254
  - # 6
    frequency:    3.8772355855

- q-position: [    0.3050000,    0.1525000,    0.4575000 ]
  distance:    0.1110938
  band:
  - # 1
    frequency:    1.2343200392
  - # 2
    frequency:    1.3763067754
  - # 3
    frequency:    2.3173960198
  - # 4
    frequency:    2.5528236414
  - # 5
    frequency:    3.2984035484
  - # 6
    frequency:    3.8605181692

- q-position: [    0.3100000,    0.1550000,    0.4650000 ]
  distance:    0.1129150
  band:
  - # 1
    frequency:    1.2454550930
  - # 2
    frequency:    1.3865240362
  - # 3
    frequency:    2.3133814880
  - # 4
    frequency:    2.5543095782
  - # 5
    frequency:    3.3042787956
  - # 6
    frequency:    3.8444410412

- q-position: [    0.3150000,    0.1575000,    0.4725000 ]
  distance:    0.1147362
  band:
  - # 1
    frequency:    1.2561494403
  - # 2
    frequency:    1.3958299427
  - # 3
    frequency:    2.3081298262
  - # 4
    frequency:    2.5560898943
  - # 5
    frequency:    3.3084536731
  - # 6
    frequency:    3.8291324214

- q-position: [    0.3200000,    0.1600000,    0.4800000 ]
  distance:    0.1165574
  band:
  - # 1
    frequency:    1.2663677392
  - # 2
    frequency:    1.4041886143
  - # 3
    frequency:    2.3017463555
  - # 4
    frequency:    2.5581461601
  - # 5
    frequency:    3.3107439537
  - # 6
    frequency:    3.8147248911

- q-position: [    0.3250000,    0.1625000,    0.4875000 ]
  distance:    0.1183786
  band:
  - # 1
    frequency:    1.2760784861
  - # 2
    frequency:    1.4115717157
  - # 3
    frequency:    2.2943430020
  - # 4
    frequency:    2.5604522402
  - # 5
    frequency:    3.3109592974
  - # 6
    frequency:    3.8013502959

- q-position: [    0.3300000,    0.1650000,    0.4950000 ]
  distance:    0.1201998
  band:
  - # 1
    frequency:    1.2852543510
  - # 2
    frequency:    1.4179592421
  - # 3
    frequency:    2.2860365309
  - # 4
    frequency:    2.5629752870
  - # 5
    frequency:    3.3089138598
  - # 6
    frequency:    3.7891316488

- q-position: [    0.3350000,    0.1675000,    0.5025000 ]
  distance:    0.1220210
  band:
  - # 1
    frequency:    1.2938724215
  - # 2
    frequency:    1.4233402286
  - # 3
    frequency:    2.2769466034
  - # 4
    frequency:    2.5656768260
  - # 5
    frequency:    3.3044396329
  - # 6
    frequency:    3.7781725066

- q-position: [    0.3400000,    0.1700000,    0.5100000 ]
  distance:    0.1238422
  band:
  - # 1
    frequency:    1.3019143654
  - # 2
    frequency:    1.4277133588
  - # 3
    frequency:    2.2671937542
  - # 4
    frequency:    2.5685139065
  - # 5
    frequency:    3.2974009449
  - # 6
    frequency:    3.7685453068

- q-position: [    0.3450000,    0.1725000,    0.5175000 ]
  distance:    0.1256634
  band:
  - # 1
    frequency:    1.3093665186
  - # 2
    frequency:    1.4310874393
  - # 3
    frequency:    2.2568973905
  - # 4
    frequency:    2.5714402872
  - # 5
    frequency:    3.2877076557
  - # 6
    frequency:    3.7602810385

- q-position: [    0.3500000,    0.1750000,    0.5250000 ]
  distance:    0.1274847
  band:
  - # 1
    frequency:    1.3162199113
  - # 2
    frequency:    1.4334817058
  - # 3
    frequency:    2.2461739130
  - # 4
    frequency:    2.5744076305
  - # 5
    frequency:    3.2753243514
  - # 6
    frequency:    3.7533628644

- q-position: [    0.3550000,    0.1775000,    0.5325000 ]
  distance:    0.1293059
  band:
  - # 1
    frequency:    1.3224702423
  - # 2
    frequency:    1.4349259229
  - # 3
    frequency:    2.2351350532
  - # 4
    frequency:    2.5773666757
  - # 5
    frequency:    3.2602736052
  - # 6
    frequency:    3.7477255548

- q-position: [    0.3600000,    0.1800000,    0.5400000 ]
  distance:    0.1311271
  band:
  - # 1
    frequency:    1.3281178105
  - # 2
    frequency:    1.4354602423
  - # 3
    frequency:    2.2238865021
  - # 4
    frequency:    2.5802683674
  - # 5
    frequency:    3.2426329507
  - # 6
    frequency:    3.7432610303

- q-position: [    0.3650000,    0.1825000,    0.5475000 ]
  distance:    0.1329483
  band:
  - # 1
    frequency:    1.3331674146
  - # 2
    frequency:    1.4351347927
  - # 3
    frequency:    2.2125268873
  - # 4
    frequency:    2.5830649158
  - # 5
    frequency:    3.2225268999
  - # 6
    frequency:    3.7398286357

- q-position: [    0.3700000,    0.1850000,    0.5550000 ]
  distance:    0.1347695
  band:
  - # 1
    frequency:    1.3376282249
  - # 2
    frequency:    1.4340089841
  - # 3
    frequency:    2.2011471333
  - # 4
    frequency:    2.5857107704
  - # 5
    frequency:    3.2001163764
  - # 6
    frequency:    3.7372677441

- q-position: [    0.3750000,    0.1875000,    0.5625000 ]
  distance:    0.1365907
  band:
  - # 1
    frequency:    1.3415136353
  - # 2
    frequency:    1.4321505251
  - # 3
    frequency:    2.1898302088
  - # 4
    frequency:    2.5881634913
  - # 5
    frequency:    3.1755879956
  - # 6
    frequency:    3.7354102402

- q-position: [    0.3800000,    0.1900000,    0.5700000 ]
  distance:    0.1384119
  band:
  - # 1
    frequency:    1.3448410953
  - # 2
    frequency:    1.4296341703
  - # 3
    frequency:    2.1786512408
  - # 4
    frequency:    2.5903845067
  - # 5
    frequency:    3.1491449433
  - # 6
    frequency:    3.7340911215

- q-position: [    0.3850000,    0.1925000,    0.5775000 ]
  distance:    0.1402331
  band:
  - # 1
    frequency:    1.3476319254
  - # 2
    frequency:    1.4265402293
  - # 3
    frequency:    2.1676779509
  - # 4
    frequency:    2.5923397489
  - # 5
    frequency:    3.1210002754
  - # 6
    frequency:    3.7331563919

- q-position: [    0.3900000,    0.1950000,    0.5850000 ]
  distance:    0.1420543
  band:
  - # 1
    frequency:    1.3499111137
  - # 2
    frequency:    1.4229528900
  - # 3
    frequency:    2.1569713435
  - # 4
    frequency:    2.5940001643
  - # 5
    frequency:    3.0913726847
  - # 6
    frequency:    3.7324682047

- q-position: [    0.3950000,    0.1975000,    0.5925000 ]
  distance:    0.1438755
  band:
  - # 1
    frequency:    1.3517070930
  - # 2
    frequency:    1.4189584166
  - # 3
    frequency:    2.1465865631
  - # 4
    frequency:    2.5953420951
  - # 5
    frequency:    3.0604843276
  - # 6
    frequency:    3.7319076702

- q-position: [    0.4000000,    0.2000000,    0.6000000 ]
  distance:    0.1456967
  band:
  - # 1
    frequency:    1.3530514930
  - # 2
    frequency:    1.4146432948
  - # 3
    frequency:    2.1365738235
  - # 4
    frequency:    2.5963475357
  - # 5
    frequency:    3.0285601376
  - # 6
    frequency:    3.7313759079

- q-position: [    0.4050000,    0.2025000,    0.6075000 ]
  distance:    0.1475180
  band:
  - # 1
    frequency:    1.3539788678
  - # 2
    frequency:    1.4100923979
  - # 3
    frequency:    2.1269793090
  - # 4
    frequency:    2.5970042648
  - # 5
    frequency:    2.9958280801
  - # 6
    frequency:    3.7307939009

- q-position: [    0.4100000,    0.2050000,    0.6150000 ]
  distance:    0.1493392
  band:
  - # 1
    frequency:    1.3545263919
  - # 2
    frequency:    1.4053872461
  - # 3
    frequency:    2.1178459467
  - # 4
    frequency:    2.5973058610
  - # 5
    frequency:    2.9625199093
  - # 6
    frequency:    3.7301016020

- q-position: [    0.4150000,    0.2075000,    0.6225000 ]
  distance:    0.1511604
  band:
  - # 1
    frequency:    1.3547335231
  - # 2
    frequency:    1.4006044257
  - # 3
    frequency:    2.1092139560
  - # 4
    frequency:    2.5972516067
  - # 5
    frequency:    2.9288721150
  - # 6
    frequency:    3.7292566142

- q-position: [    0.4200000,    0.2100000,    0.6300000 ]
  distance:    0.1529816
  band:
  - # 1
    frequency:    1.3546416302
  - # 2
    frequency:    1.3958142274
  - # 3
    frequency:    2.1011210896
  - # 4
    frequency:    2.5968462894
  - # 5
    frequency:    2.8951268582
  - # 6
    frequency:    3.7282326600

- q-position: [    0.4250000,    0.2125000,    0.6375000 ]
  distance:    0.1548028
  band:
  - # 1
    frequency:    1.3542935829
  - # 2
    frequency:    1.3910795501
  - # 3
    frequency:    2.0936024939
  - # 4
    frequency:    2.5960999082
  - # 5
    frequency:    2.8615327716
  - # 6
    frequency:    3.7270179694

- q-position: [    0.4300000,    0.2150000,    0.6450000 ]
  distance:    0.1566240
  band:
  - # 1
    frequency:    1.3537333053
  - # 2
    frequency:    1.3864551078
  - # 3
    frequency:    2.0866901336
  - # 4
    frequency:    2.5950272972
  - # 5
    frequency:    2.8283455589
  - # 6
    frequency:    3.7256136615

- q-position: [    0.4350000,    0.2175000,    0.6525000 ]
  distance:    0.1584452
  band:
  - # 1
    frequency:    1.3530052934
  - # 2
    frequency:    1.3819869653
  - # 3
    frequency:    2.0804117519
  - # 4
    frequency:    2.5936476730
  - # 5
    frequency:    2.7958283523
  - # 6
    frequency:    3.7240321568

- q-position: [    0.4400000,    0.2200000,    0.6600000 ]
  distance:    0.1602664
  band:
  - # 1
    frequency:    1.3521541019
  - # 2
    frequency:    1.3777124141
  - # 3
    frequency:    2.0747893645
  - # 4
    frequency:    2.5919841193
  - # 5
    frequency:    2.7642517972
  - # 6
    frequency:    3.7222956362

- q-position: [    0.4450000,    0.2225000,    0.6675000 ]
  distance:    0.1620876
  band:
  - # 1
    frequency:    1.3512238027
  - # 2
    frequency:    1.3736601915
  - # 3
    frequency:    2.0698373410
  - # 4
    frequency:    2.5900630188
  - # 5
    frequency:    2.7338938170
  - # 6
    frequency:    3.7204345510

- q-position: [    0.4500000,    0.2250000,    0.6750000 ]
  distance:    0.1639088
  band:
  - # 1
    frequency:    1.3502574263
  - # 2
    frequency:    1.3698510297
  - # 3
    frequency:    2.0655601839
  - # 4
    frequency:    2.5879134432
  - # 5
    frequency:    2.7050389800
  - # 6
    frequency:    3.7184861839

- q-position: [    0.4550000,    0.2275000,    0.6825000 ]
  distance:    0.1657300
  band:
  - # 1
    frequency:    1.3492963917
  - # 2
    frequency:    1.3662985086
  - # 3