14.400
  24.61992  -0.00000   0.00000   0.00000  24.61992  -0.00000   0.00000   0.00000  24.61992
   4.76186   0.00000   0.00000   0.00000   4.76186   0.00000   0.00000   0.00000   4.76186
  -4.75973   0.00000   0.00000   0.00000  -4.75974   0.00000   0.00000   0.00000  -4.75973
