128  
2    

1    
  0.0000000000000000   0.0070710678118655   0.0070710678118655
   0.0000000000   -0.0202027800   -0.0202027800
   0.0000000000    0.0040285100    0.0040285100
  -0.0000000000    0.0007556300    0.0007556300
   0.0000000000    0.0039857800    0.0039857800
   0.0037124500   -0.0003774000    0.0003004400
   0.0002464500    0.0001745700    0.0004360400
  -0.0002458800    0.0004335400    0.0001757900
  -0.0036956100    0.0003052800   -0.0003733400
   0.0004247700   -0.0000704200    0.0003308800
  -0.0000009600   -0.0000712600   -0.0000707800
  -0.0004247700    0.0003308800   -0.0000704200
   0.0000009600   -0.0000707800   -0.0000712600
   0.0036956100   -0.0003733400    0.0003052800
  -0.0037124500    0.0003004400   -0.0003774000
  -0.0002464500    0.0004360400    0.0001745700
   0.0002458800    0.0001757900    0.0004335400
   0.0037124500    0.0003004400   -0.0003774000
   0.0002464500    0.0004360400    0.0001745700
  -0.0002458800    0.0001757900    0.0004335400
  -0.0036956100   -0.0003733400    0.0003052800
   0.0003190800    0.0001033800    0.0001033800
   0.0000001000    0.0001324000    0.0001324000
  -0.0003166200    0.0001040600    0.0001040600
  -0.0000115900    0.0002134500    0.0002134500
   0.0000705100   -0.0001428000    0.0001162700
  -0.0000721500    0.0001175900   -0.0001421600
  -0.0004148800    0.0002725400   -0.0000799000
   0.0004178800   -0.0000803300    0.0002697000
   0.0000000000   -0.0033988600   -0.0034032400
   0.0000000000    0.0045625500    0.0002162800
   0.0000000000    0.0006895200    0.0006853900
   0.0000000000    0.0002104500    0.0045686000
   0.0004247700    0.0003308800   -0.0000704200
  -0.0000009600   -0.0000707800   -0.0000712600
  -0.0004247700   -0.0000704200    0.0003308800
   0.0000009600   -0.0000712600   -0.0000707800
   0.0000705100    0.0001162700   -0.0001428000
  -0.0000721500   -0.0001421600    0.0001175900
  -0.0004148800   -0.0000799000    0.0002725400
   0.0004178800    0.0002697000   -0.0000803300
   0.0000000000   -0.0000936300   -0.0000936300
   0.0000000000   -0.0001428700   -0.0001428700
   0.0000000000    0.0009526200    0.0009526200
  -0.0000000000   -0.0001479000   -0.0001479000
   0.0000721500    0.0001175900   -0.0001421600
   0.0004148800    0.0002725400   -0.0000799000
  -0.0004178800   -0.0000803300    0.0002697000
  -0.0000705100   -0.0001428000    0.0001162700
   0.0036956100    0.0003052800   -0.0003733400
  -0.0037124500   -0.0003774000    0.0003004400
  -0.0002464500    0.0001745700    0.0004360400
   0.0002458800    0.0004335400    0.0001757900
   0.0000000000   -0.0034032400   -0.0033988600
   0.0000000000    0.0002162800    0.0045625500
   0.0000000000    0.0006853900    0.0006895200
   0.0000000000    0.0045686000    0.0002104500
   0.0000721500   -0.0001421600    0.0001175900
   0.0004148800   -0.0000799000    0.0002725400
  -0.0004178800    0.0002697000   -0.0000803300
  -0.0000705100    0.0001162700   -0.0001428000
   0.0003166200    0.0001040600    0.0001040600
   0.0000115900    0.0002134500    0.0002134500
  -0.0003190800    0.0001033800    0.0001033800
  -0.0000001000    0.0001324000    0.0001324000
  -0.0006362300   -0.0003477300   -0.0003477300
  -0.0000000700   -0.0002342300   -0.0002342300
   0.0006317200   -0.0003461100   -0.0003461100
  -0.0000080100    0.0012502400    0.0012502400
  -0.0001109400   -0.0000324200   -0.0001232200
   0.0001110700   -0.0001232200   -0.0000330300
   0.0008443800   -0.0001577000    0.0000581900
  -0.0008494400    0.0000582000   -0.0001550500
   0.0000014800    0.0002868200    0.0002872600
   0.0005901200   -0.0003819800    0.0000581700
  -0.0000004100   -0.0001663100   -0.0001649800
  -0.0005927600    0.0000582200   -0.0003832900
   0.0000000000    0.0044283500    0.0012492600
   0.0000000000   -0.0012325900   -0.0007470000
   0.0000000000   -0.0007486200   -0.0012265400
   0.0000000000    0.0012506800    0.0041011200
  -0.0001109400   -0.0001232200   -0.0000324200
   0.0001110700   -0.0000330300   -0.0001232200
   0.0008443800    0.0000581900   -0.0001577000
  -0.0008494400   -0.0001550500    0.0000582000
   0.0000000800   -0.0000122200   -0.0000122200
   0.0001028400   -0.0000631500   -0.0000631500
   0.0000032700   -0.0002305100   -0.0002305100
  -0.0001035800   -0.0000617500   -0.0000617500
   0.0000000000    0.0004605900    0.0004334100
   0.0000000000   -0.0019552600   -0.0002309000
   0.0000000000   -0.0002301400   -0.0019586400
   0.0000000000    0.0004367000    0.0004680200
  -0.0005901200   -0.0003819800    0.0000581700
   0.0000004100   -0.0001663100   -0.0001649800
   0.0005927600    0.0000582200   -0.0003832900
  -0.0000014800    0.0002868200    0.0002872600
   0.0000014800    0.0002872600    0.0002868200
   0.0005901200    0.0000581700   -0.0003819800
  -0.0000004100   -0.0001649800   -0.0001663100
  -0.0005927600   -0.0003832900    0.0000582200
   0.0000000000    0.0004334100    0.0004605900
   0.0000000000   -0.0002309000   -0.0019552600
   0.0000000000   -0.0019586400   -0.0002301400
   0.0000000000    0.0004680200    0.0004367000
  -0.0001028400   -0.0000631500   -0.0000631500
  -0.0000032700   -0.0002305100   -0.0002305100
   0.0001035800   -0.0000617500   -0.0000617500
  -0.0000000800   -0.0000122200   -0.0000122200
  -0.0008443800   -0.0001577000    0.0000581900
   0.0008494400    0.0000582000   -0.0001550500
   0.0001109400   -0.0000324200   -0.0001232200
  -0.0001110700   -0.0001232200   -0.0000330300
   0.0000000000    0.0012492600    0.0044283500
   0.0000000000   -0.0007470000   -0.0012325900
   0.0000000000   -0.0012265400   -0.0007486200
   0.0000000000    0.0041011200    0.0012506800
  -0.0005901200    0.0000581700   -0.0003819800
   0.0000004100   -0.0001649800   -0.0001663100
   0.0005927600   -0.0003832900    0.0000582200
  -0.0000014800    0.0002872600    0.0002868200
  -0.0008443800    0.0000581900   -0.0001577000
   0.0008494400   -0.0001550500    0.0000582000
   0.0001109400   -0.0001232200   -0.0000324200
  -0.0001110700   -0.0000330300   -0.0001232200
   0.0000080100    0.0012502400    0.0012502400
   0.0006362300   -0.0003477300   -0.0003477300
   0.0000000700   -0.0002342300   -0.0002342300
  -0.0006317200   -0.0003461100   -0.0003461100

65   
  0.0000000000000000   0.0070710678118655   0.0070710678118655
  -0.0006316000   -0.0003483200   -0.0003483200
  -0.0000059200    0.0012502300    0.0012502300
   0.0006360900   -0.0003468100   -0.0003468100
   0.0000005000   -0.0002343300   -0.0002343300
   0.0000000000    0.0041081200    0.0012632000
   0.0000000000    0.0012362900    0.0044209500
   0.0000000000   -0.0010043300   -0.0009771600
   0.0000000000   -0.0009710400   -0.0010031400
   0.0000001100    0.0002850700    0.0002875800
  -0.0008474200    0.0000578900   -0.0003817200
  -0.0000013400   -0.0001646800   -0.0001656200
   0.0008465900   -0.0003833100    0.0000581200
  -0.0001110400   -0.0000335000   -0.0001230500
  -0.0005912000    0.0000582900   -0.0001595100
   0.0005921200   -0.0001539400    0.0000576500
   0.0001112500   -0.0001233200   -0.0000328800
   0.0000000000    0.0012632000    0.0041081200
   0.0000000000    0.0044209500    0.0012362900
   0.0000000000   -0.0009771600   -0.0010043300
   0.0000000000   -0.0010031400   -0.0009710400
   0.0000059200    0.0012502300    0.0012502300
  -0.0006360900   -0.0003468100   -0.0003468100
  -0.0000005000   -0.0002343300   -0.0002343300
   0.0006316000   -0.0003483200   -0.0003483200
  -0.0005921200    0.0000576500   -0.0001539400
  -0.0001112500   -0.0000328800   -0.0001233200
   0.0001110400   -0.0001230500   -0.0000335000
   0.0005912000   -0.0001595100    0.0000582900
  -0.0008465900    0.0000581200   -0.0003833100
  -0.0000001100    0.0002875800    0.0002850700
   0.0008474200   -0.0003817200    0.0000578900
   0.0000013400   -0.0001656200   -0.0001646800
   0.0000001100    0.0002875800    0.0002850700
  -0.0008474200   -0.0003817200    0.0000578900
  -0.0000013400   -0.0001656200   -0.0001646800
   0.0008465900    0.0000581200   -0.0003833100
  -0.0005921200   -0.0001539400    0.0000576500
  -0.0001112500   -0.0001233200   -0.0000328800
   0.0001110400   -0.0000335000   -0.0001230500
   0.0005912000    0.0000582900   -0.0001595100
  -0.0001020400   -0.0000620000   -0.0000620000
   0.0000001300   -0.0000120700   -0.0000120700
   0.0001035000   -0.0000623600   -0.0000623600
   0.0000061600   -0.0002305000   -0.0002305000
   0.0000000000    0.0006896500    0.0002089000
   0.0000000000    0.0002091400    0.0006908900
   0.0000000000   -0.0019604600   -0.0002298200
   0.0000000000   -0.0002309700   -0.0019526500
  -0.0001110400   -0.0001230500   -0.0000335000
  -0.0005912000   -0.0001595100    0.0000582900
   0.0005921200    0.0000576500   -0.0001539400
   0.0001112500   -0.0000328800   -0.0001233200
  -0.0008465900   -0.0003833100    0.0000581200
  -0.0000001100    0.0002850700    0.0002875800
   0.0008474200    0.0000578900   -0.0003817200
   0.0000013400   -0.0001646800   -0.0001656200
   0.0000000000    0.0002089000    0.0006896500
   0.0000000000    0.0006908900    0.0002091400
   0.0000000000   -0.0002298200   -0.0019604600
   0.0000000000   -0.0019526500   -0.0002309700
  -0.0000001300   -0.0000120700   -0.0000120700
  -0.0001035000   -0.0000623600   -0.0000623600
  -0.0000061600   -0.0002305000   -0.0002305000
   0.0001020400   -0.0000620000   -0.0000620000
  -0.0000000000   -0.0237317900   -0.0237317900
  -0.0000000000    0.0016138000    0.0016138000
   0.0000000000    0.0004599500    0.0004599500
  -0.0000000000    0.0015822100    0.0015822100
   0.0014426200   -0.0000694800    0.0001580100
   0.0001922400    0.0001412400    0.0002847000
  -0.0001906400    0.0002845900    0.0001414100
  -0.0014365400    0.0001581200   -0.0000683900
   0.0002937600    0.0000329000    0.0001658700
   0.0000003900   -0.0000506600   -0.0000495700
  -0.0002937600    0.0001658700    0.0000329000
  -0.0000003900   -0.0000495700   -0.0000506600
   0.0014365400   -0.0000683900    0.0001581200
  -0.0014426200    0.0001580100   -0.0000694800
  -0.0001922400    0.0002847000    0.0001412400
   0.0001906400    0.0001414100    0.0002845900
   0.0014426200    0.0001580100   -0.0000694800
   0.0001922400    0.0002847000    0.0001412400
  -0.0001906400    0.0001414100    0.0002845900
  -0.0014365400   -0.0000683900    0.0001581200
   0.0002426100    0.0000908100    0.0000908100
  -0.0000000700    0.0001322400    0.0001322400
  -0.0002416600    0.0000907600    0.0000907600
  -0.0000197500    0.0003348600    0.0003348600
   0.0000501600   -0.0001009800    0.0000428200
  -0.0000509300    0.0000422100   -0.0001003300
  -0.0004254800    0.0004576300    0.0001455900
   0.0004242100    0.0001461300    0.0004559600
   0.0000000000   -0.0012824500   -0.0012807000
   0.0000000000    0.0052742600    0.0003381500
   0.0000000000    0.0008833700    0.0008801900
   0.0000000000    0.0003315200    0.0052582600
   0.0002937600    0.0001658700    0.0000329000
   0.0000003900   -0.0000495700   -0.0000506600
  -0.0002937600    0.0000329000    0.0001658700
  -0.0000003900   -0.0000506600   -0.0000495700
   0.0000501600    0.0000428200   -0.0001009800
  -0.0000509300   -0.0001003300    0.0000422100
  -0.0004254800    0.0001455900    0.0004576300
   0.0004242100    0.0004559600    0.0001461300
  -0.0000000000   -0.0001279400   -0.0001279400
   0.0000000000    0.0000314000    0.0000314000
   0.0000000000    0.0014330700    0.0014330700
   0.0000000000    0.0000324400    0.0000324400
   0.0000509300    0.0000422100   -0.0001003300
   0.0004254800    0.0004576300    0.0001455900
  -0.0004242100    0.0001461300    0.0004559600
  -0.0000501600   -0.0001009800    0.0000428200
   0.0014365400    0.0001581200   -0.0000683900
  -0.0014426200   -0.0000694800    0.0001580100
  -0.0001922400    0.0001412400    0.0002847000
   0.0001906400    0.0002845900    0.0001414100
   0.0000000000   -0.0012807000   -0.0012824500
   0.0000000000    0.0003381500    0.0052742600
   0.0000000000    0.0008801900    0.0008833700
   0.0000000000    0.0052582600    0.0003315200
   0.0000509300   -0.0001003300    0.0000422100
   0.0004254800    0.0001455900    0.0004576300
  -0.0004242100    0.0004559600    0.0001461300
  -0.0000501600    0.0000428200   -0.0001009800
   0.0002416600    0.0000907600    0.0000907600
   0.0000197500    0.0003348600    0.0003348600
  -0.0002426100    0.0000908100    0.0000908100
   0.0000000700    0.0001322400    0.0001322400
