mesh: [    48,    48,    48 ]
nqpoint: 2769   
natom:   2      
phonon:
- q-position: [    0.0000000,    0.0000000,    0.0000000 ]
  weight: 1    
  band:
  - # 1
    frequency:     0.0013262671
  - # 2
    frequency:     0.0013262671
  - # 3
    frequency:     0.0013262671
  - # 4
    frequency:     1.2473019101
  - # 5
    frequency:     1.2473019101
  - # 6
    frequency:     1.2473019101

- q-position: [    0.0208333,    0.0000000,    0.0000000 ]
  weight: 8    
  band:
  - # 1
    frequency:     0.1324645222
  - # 2
    frequency:     0.1324645222
  - # 3
    frequency:     0.1972763101
  - # 4
    frequency:     1.2829921030
  - # 5
    frequency:     1.2829921030
  - # 6
    frequency:     3.7324300937

- q-position: [    0.0416667,    0.0000000,    0.0000000 ]
  weight: 8    
  band:
  - # 1
    frequency:     0.2572740302
  - # 2
    frequency:     0.2572740302
  - # 3
    frequency:     0.3923262250
  - # 4
    frequency:     1.3843709037
  - # 5
    frequency:     1.3843709037
  - # 6
    frequency:     3.7584137709

- q-position: [    0.0625000,    0.0000000,    0.0000000 ]
  weight: 8    
  band:
  - # 1
    frequency:     0.3715017660
  - # 2
    frequency:     0.3715017660
  - # 3
    frequency:     0.5830665012
  - # 4
    frequency:     1.5367886905
  - # 5
    frequency:     1.5367886905
  - # 6
    frequency:     3.8003595201

- q-position: [    0.0833333,    0.0000000,    0.0000000 ]
  weight: 8    
  band:
  - # 1
    frequency:     0.4764545923
  - # 2
    frequency:     0.4764545923
  - # 3
    frequency:     0.7676427980
  - # 4
    frequency:     1.7224208003
  - # 5
    frequency:     1.7224208003
  - # 6
    frequency:     3.8563094248

- q-position: [    0.1041667,    0.0000000,    0.0000000 ]
  weight: 8    
  band:
  - # 1
    frequency:     0.5746271550
  - # 2
    frequency:     0.5746271551
  - # 3
    frequency:     0.9445330781
  - # 4
    frequency:     1.9253409734
  - # 5
    frequency:     1.9253409734
  - # 6
    frequency:     3.9236812387

- q-position: [    0.1250000,    0.0000000,    0.0000000 ]
  weight: 8    
  band:
  - # 1
    frequency:     0.6679041037
  - # 2
    frequency:     0.6679041037
  - # 3
    frequency:     1.1126109519
  - # 4
    frequency:     2.1334124419
  - # 5
    frequency:     2.1334124419
  - # 6
    frequency:     3.9994121491

- q-position: [    0.1458333,    0.0000000,    0.0000000 ]
  weight: 8    
  band:
  - # 1
    frequency:     0.7573028866
  - # 2
    frequency:     0.7573028866
  - # 3
    frequency:     1.2711820904
  - # 4
    frequency:     2.3380021227
  - # 5
    frequency:     2.3380021227
  - # 6
    frequency:     4.0801227007

- q-position: [    0.1666667,    0.0000000,    0.0000000 ]
  weight: 8    
  band:
  - # 1
    frequency:     0.8432467179
  - # 2
    frequency:     0.8432467179
  - # 3
    frequency:     1.4199967796
  - # 4
    frequency:     2.5331187412
  - # 5
    frequency:     2.5331187412
  - # 6
    frequency:     4.1622874328

- q-position: [    0.1875000,    0.0000000,    0.0000000 ]
  weight: 8    
  band:
  - # 1
    frequency:     0.9258384104
  - # 2
    frequency:     0.9258384104
  - # 3
    frequency:     1.5592434541
  - # 4
    frequency:     2.7146743803
  - # 5
    frequency:     2.7146743803
  - # 6
    frequency:     4.2423995745

- q-position: [    0.2083333,    0.0000000,    0.0000000 ]
  weight: 8    
  band:
  - # 1
    frequency:     1.0050282091
  - # 2
    frequency:     1.0050282091
  - # 3
    frequency:     1.6895260810
  - # 4
    frequency:     2.8799825505
  - # 5
    frequency:     2.8799825505
  - # 6
    frequency:     4.3171202663

- q-position: [    0.2291667,    0.0000000,    0.0000000 ]
  weight: 8    
  band:
  - # 1
    frequency:     1.0806974643
  - # 2
    frequency:     1.0806974643
  - # 3
    frequency:     1.8118240605
  - # 4
    frequency:     3.0274357947
  - # 5
    frequency:     3.0274357947
  - # 6
    frequency:     4.3834073361

- q-position: [    0.2500000,    0.0000000,    0.0000000 ]
  weight: 8    
  band:
  - # 1
    frequency:     1.1526925218
  - # 2
    frequency:     1.1526925218
  - # 3
    frequency:     1.9274289496
  - # 4
    frequency:     3.1562937434
  - # 5
    frequency:     3.1562937434
  - # 6
    frequency:     4.4386232862

- q-position: [    0.2708333,    0.0000000,    0.0000000 ]
  weight: 8    
  band:
  - # 1
    frequency:     1.2208325448
  - # 2
    frequency:     1.2208325448
  - # 3
    frequency:     2.0378498089
  - # 4
    frequency:     3.2665329496
  - # 5
    frequency:     3.2665329496
  - # 6
    frequency:     4.4806257806

- q-position: [    0.2916667,    0.0000000,    0.0000000 ]
  weight: 8    
  band:
  - # 1
    frequency:     1.2849052525
  - # 2
    frequency:     1.2849052525
  - # 3
    frequency:     2.1446795420
  - # 4
    frequency:     3.3587286568
  - # 5
    frequency:     3.3587286568
  - # 6
    frequency:     4.5078462404

- q-position: [    0.3125000,    0.0000000,    0.0000000 ]
  weight: 8    
  band:
  - # 1
    frequency:     1.3446586358
  - # 2
    frequency:     1.3446586358
  - # 3
    frequency:     2.2494182436
  - # 4
    frequency:     3.4339510774
  - # 5
    frequency:     3.4339510774
  - # 6
    frequency:     4.5193636133

- q-position: [    0.3333333,    0.0000000,    0.0000000 ]
  weight: 8    
  band:
  - # 1
    frequency:     1.3997934754
  - # 2
    frequency:     1.3997934754
  - # 3
    frequency:     2.3532549155
  - # 4
    frequency:     3.4936662063
  - # 5
    frequency:     3.4936662063
  - # 6
    frequency:     4.5149818589

- q-position: [    0.3541667,    0.0000000,    0.0000000 ]
  weight: 8    
  band:
  - # 1
    frequency:     1.4499597842
  - # 2
    frequency:     1.4499597842
  - # 3
    frequency:     2.4568134001
  - # 4
    frequency:     3.5396355600
  - # 5
    frequency:     3.5396355600
  - # 6
    frequency:     4.4953221065

- q-position: [    0.3750000,    0.0000000,    0.0000000 ]
  weight: 8    
  band:
  - # 1
    frequency:     1.4947593833
  - # 2
    frequency:     1.4947593833
  - # 3
    frequency:     2.5598691756
  - # 4
    frequency:     3.5738118580
  - # 5
    frequency:     3.5738118580
  - # 6
    frequency:     4.4619441830

- q-position: [    0.3958333,    0.0000000,    0.0000000 ]
  weight: 8    
  band:
  - # 1
    frequency:     1.5337562262
  - # 2
    frequency:     1.5337562262
  - # 3
    frequency:     2.6610403943
  - # 4
    frequency:     3.5982294875
  - # 5
    frequency:     3.5982294875
  - # 6
    frequency:     4.4175153934

- q-position: [    0.4166667,    0.0000000,    0.0000000 ]
  weight: 8    
  band:
  - # 1
    frequency:     1.5664954138
  - # 2
    frequency:     1.5664954138
  - # 3
    frequency:     2.7574580472
  - # 4
    frequency:     3.6148902482
  - # 5
    frequency:     3.6148902482
  - # 6
    frequency:     4.3660374913

- q-position: [    0.4375000,    0.0000000,    0.0000000 ]
  weight: 8    
  band:
  - # 1
    frequency:     1.5925307404
  - # 2
    frequency:     1.5925307404
  - # 3
    frequency:     2.8444593846
  - # 4
    frequency:     3.6256468246
  - # 5
    frequency:     3.6256468246
  - # 6
    frequency:     4.3130941438

- q-position: [    0.4583333,    0.0000000,    0.0000000 ]
  weight: 8    
  band:
  - # 1
    frequency:     1.6114589136
  - # 2
    frequency:     1.6114589136
  - # 3
    frequency:     2.9155018215
  - # 4
    frequency:     3.6320888278
  - # 5
    frequency:     3.6320888278
  - # 6
    frequency:     4.2659178221

- q-position: [    0.4791667,    0.0000000,    0.0000000 ]
  weight: 8    
  band:
  - # 1
    frequency:     1.6229564378
  - # 2
    frequency:     1.6229564378
  - # 3
    frequency:     2.9628234044
  - # 4
    frequency:     3.6354388181
  - # 5
    frequency:     3.6354388181
  - # 6
    frequency:     4.2327382522

- q-position: [    0.5000000,    0.0000000,    0.0000000 ]
  weight: 4    
  band:
  - # 1
    frequency:     1.6268132423
  - # 2
    frequency:     1.6268132423
  - # 3
    frequency:     2.9795459728
  - # 4
    frequency:     3.6364676639
  - # 5
    frequency:     3.6364676639
  - # 6
    frequency:     4.2207008565

- q-position: [    0.0208333,    0.0208333,    0.0000000 ]
  weight: 6    
  band:
  - # 1
    frequency:     0.1474441256
  - # 2
    frequency:     0.1474441256
  - # 3
    frequency:     0.2343718240
  - # 4
    frequency:     1.2879841510
  - # 5
    frequency:     1.2879841510
  - # 6
    frequency:     3.7395554252

- q-position: [    0.0416667,    0.0208333,    0.0000000 ]
  weight: 24   
  band:
  - # 1
    frequency:     0.2414325227
  - # 2
    frequency:     0.2439159411
  - # 3
    frequency:     0.3819060089
  - # 4
    frequency:     1.3600511216
  - # 5
    frequency:     1.3670253885
  - # 6
    frequency:     3.7612276378

- q-position: [    0.0625000,    0.0208333,    0.0000000 ]
  weight: 24   
  band:
  - # 1
    frequency:     0.3475334020
  - # 2
    frequency:     0.3514585245
  - # 3
    frequency:     0.5547906582
  - # 4
    frequency:     1.4880148691
  - # 5
    frequency:     1.5063624416
  - # 6
    frequency:     3.7971023446

- q-position: [    0.0833333,    0.0208333,    0.0000000 ]
  weight: 24   
  band:
  - # 1
    frequency:     0.4496422560
  - # 2
    frequency:     0.4543568222
  - # 3
    frequency:     0.7315866890
  - # 4
    frequency:     1.6554603975
  - # 5
    frequency:     1.6843211776
  - # 6
    frequency:     3.8470624232

- q-position: [    0.1041667,    0.0208333,    0.0000000 ]
  weight: 24   
  band:
  - # 1
    frequency:     0.5459286031
  - # 2
    frequency:     0.5522108041
  - # 3
    frequency:     0.9051860872
  - # 4
    frequency:     1.8460340865
  - # 5
    frequency:     1.8838256671
  - # 6
    frequency:     3.9090310227

- q-position: [    0.1250000,    0.0208333,    0.0000000 ]
  weight: 24   
  band:
  - # 1
    frequency:     0.6372121127
  - # 2
    frequency:     0.6462400192
  - # 3
    frequency:     1.0723524435
  - # 4
    frequency:     2.0464337163
  - # 5
    frequency:     2.0917600523
  - # 6
    frequency:     3.9802233832

- q-position: [    0.1458333,    0.0208333,    0.0000000 ]
  weight: 24   
  band:
  - # 1
    frequency:     0.7243740256
  - # 2
    frequency:     0.7372124564
  - # 3
    frequency:     1.2313831163
  - # 4
    frequency:     2.2468833027
  - # 5
    frequency:     2.2986569435
  - # 6
    frequency:     4.0574550600

- q-position: [    0.1666667,    0.0208333,    0.0000000 ]
  weight: 24   
  band:
  - # 1
    frequency:     0.8079381746
  - # 2
    frequency:     0.8253653029
  - # 3
    frequency:     1.3814440220
  - # 4
    frequency:     2.4405060863
  - # 5
    frequency:     2.4978593540
  - # 6
    frequency:     4.1373296913

- q-position: [    0.1875000,    0.0208333,    0.0000000 ]
  weight: 24   
  band:
  - # 1
    frequency:     0.8881530592
  - # 2
    frequency:     0.9106185893
  - # 3
    frequency:     1.5223297354
  - # 4
    frequency:     2.6225767546
  - # 5
    frequency:     2.6847434722
  - # 6
    frequency:     4.2164061653

- q-position: [    0.2083333,    0.0208333,    0.0000000 ]
  weight: 24   
  band:
  - # 1
    frequency:     0.9651157663
  - # 2
    frequency:     0.9927413894
  - # 3
    frequency:     1.6543490923
  - # 4
    frequency:     2.7899539535
  - # 5
    frequency:     2.8561734416
  - # 6
    frequency:     4.2913510148

- q-position: [    0.2291667,    0.0208333,    0.0000000 ]
  weight: 24   
  band:
  - # 1
    frequency:     1.0388488384
  - # 2
    frequency:     1.0714423013
  - # 3
    frequency:     1.7782471281
  - # 4
    frequency:     2.9406989808
  - # 5
    frequency:     3.0101496990
  - # 6
    frequency:     4.3590723405

- q-position: [    0.2500000,    0.0208333,    0.0000000 ]
  weight: 24   
  band:
  - # 1
    frequency:     1.1093335669
  - # 2
    frequency:     1.1464095847
  - # 3
    frequency:     1.8951285563
  - # 4
    frequency:     3.0738222913
  - # 5
    frequency:     3.1455813257
  - # 6
    frequency:     4.4168337666

- q-position: [    0.2708333,    0.0208333,    0.0000000 ]
  weight: 24   
  band:
  - # 1
    frequency:     1.1765162276
  - # 2
    frequency:     1.2173236749
  - # 3
    frequency:     2.0063637066
  - # 4
    frequency:     3.1891060120
  - # 5
    frequency:     3.2621295422
  - # 6
    frequency:     4.4623504553

- q-position: [    0.2916667,    0.0208333,    0.0000000 ]
  weight: 24   
  band:
  - # 1
    frequency:     1.2403003665
  - # 2
    frequency:     1.2838560579
  - # 3
    frequency:     2.1134641556
  - # 4
    frequency:     3.2869679216
  - # 5
    frequency:     3.3600888985
  - # 6
    frequency:     4.4938718805

- q-position: [    0.3125000,    0.0208333,    0.0000000 ]
  weight: 24   
  band:
  - # 1
    frequency:     1.3005337686
  - # 2
    frequency:     1.3456625798
  - # 3
    frequency:     2.2179204266
  - # 4
    frequency:     3.3683459479
  - # 5
    frequency:     3.4402863226
  - # 6
    frequency:     4.5102577264

- q-position: [    0.3333333,    0.0208333,    0.0000000 ]
  weight: 24   
  band:
  - # 1
    frequency:     1.3569956870
  - # 2
    frequency:     1.4023762463
  - # 3
    frequency:     2.3209997971
  - # 4
    frequency:     3.4345910392
  - # 5
    frequency:     3.5039865865
  - # 6
    frequency:     4.5110545846

- q-position: [    0.3541667,    0.0208333,    0.0000000 ]
  weight: 24   
  band:
  - # 1
    frequency:     1.4093880715
  - # 2
    frequency:     1.4536032297
  - # 3
    frequency:     2.4235074054
  - # 4
    frequency:     3.4873616303
  - # 5
    frequency:     3.5527976898
  - # 6
    frequency:     4.4965830134

- q-position: [    0.3750000,    0.0208333,    0.0000000 ]
  weight: 24   
  band:
  - # 1
    frequency:     1.4573334426
  - # 2
    frequency:     1.4989250495
  - # 3
    frequency:     2.5255164388
  - # 4
    frequency:     3.5285162152
  - # 5
    frequency:     3.5885724836
  - # 6
    frequency:     4.4680476133

- q-position: [    0.3958333,    0.0208333,    0.0000000 ]
  weight: 24   
  band:
  - # 1
    frequency:     1.5003813282
  - # 2
    frequency:     1.5379089523
  - # 3
    frequency:     2.6260722197
  - # 4
    frequency:     3.5600027110
  - # 5
    frequency:     3.6133044207
  - # 6
    frequency:     4.4276862038

- q-position: [    0.4166667,    0.0208333,    0.0000000 ]
  weight: 24   
  band:
  - # 1
    frequency:     1.5380244669
  - # 2
    frequency:     1.5701271378
  - # 3
    frequency:     2.7228753444
  - # 4
    frequency:     3.5837450293
  - # 5
    frequency:     3.6290160831
  - # 6
    frequency:     4.3789719325

- q-position: [    0.4375000,    0.0208333,    0.0000000 ]
  weight: 24   
  band:
  - # 1
    frequency:     1.5697249913
  - # 2
    frequency:     1.5951838434
  - # 3
    frequency:     2.8119724449
  - # 4
    frequency:     3.6015290376
  - # 5
    frequency:     3.6376394496
  - # 6
    frequency:     4.3268527953

- q-position: [    0.4583333,    0.0208333,    0.0000000 ]
  weight: 24   
  band:
  - # 1
    frequency:     1.5949492831
  - # 2
    frequency:     1.6127476915
  - # 3
    frequency:     2.8875859955
  - # 4
    frequency:     3.6148921127
  - # 5
    frequency:     3.6408883051
  - # 6
    frequency:     4.2779010385

- q-position: [    0.4791667,    0.0208333,    0.0000000 ]
  weight: 24   
  band:
  - # 1
    frequency:     1.6132082106
  - # 2
    frequency:     1.6225852552
  - # 3
    frequency:     2.9424693499
  - # 4
    frequency:     3.6250226588
  - # 5
    frequency:     3.6401326936
  - # 6
    frequency:     4.2399739553

- q-position: [    0.5000000,    0.0208333,    0.0000000 ]
  weight: 24   
  band:
  - # 1
    frequency:     1.6240974524
  - # 2
    frequency:     1.6245906353
  - # 3
    frequency:     2.9694357919
  - # 4
    frequency:     3.6326777135
  - # 5
    frequency:     3.6363121343
  - # 6
    frequency:     4.2206947206

- q-position: [   -0.4791667,    0.0208333,    0.0000000 ]
  weight: 24   
  band:
  - # 1
    frequency:     1.6187265723
  - # 2
    frequency:     1.6273314540
  - # 3
    frequency:     2.9639702714
  - # 4
    frequency:     3.6300967863
  - # 5
    frequency:     3.6381272248
  - # 6
    frequency:     4.2246239008

- q-position: [   -0.4583333,    0.0208333,    0.0000000 ]
  weight: 24   
  band:
  - # 1
    frequency:     1.6052362401
  - # 2
    frequency:     1.6227650736
  - # 3
    frequency:     2.9271018286
  - # 4
    frequency:     3.6214809854
  - # 5
    frequency:     3.6411319590
  - # 6
    frequency:     4.2507860588

- q-position: [   -0.4375000,    0.0208333,    0.0000000 ]
  weight: 24   
  band:
  - # 1
    frequency:     1.5845078833
  - # 2
    frequency:     1.6103993913
  - # 3
    frequency:     2.8645409187
  - # 4
    frequency:     3.6100209504
  - # 5
    frequency:     3.6409582477
  - # 6
    frequency:     4.2932774070

- q-position: [   -0.4166667,    0.0208333,    0.0000000 ]
  weight: 24   
  band:
  - # 1
    frequency:     1.5570034350
  - # 2
    frequency:     1.5903717628
  - # 3
    frequency:     2.7837439819
  - # 4
    frequency:     3.5949153393
  - # 5
    frequency:     3.6364278472
  - # 6
    frequency:     4.3441334157

- q-position: [   -0.3958333,    0.0208333,    0.0000000 ]
  weight: 24   
  band:
  - # 1
    frequency:     1.5232580675
  - # 2
    frequency:     1.5629336058
  - # 3
    frequency:     2.6915529865
  - # 4
    frequency:     3.5749237866
  - # 5
    frequency:     3.6259967040
  - # 6
    frequency:     4.3958195089

- q-position: [   -0.3750000,    0.0208333,    0.0000000 ]
  weight: 24   
  band:
  - # 1
    frequency:     1.4838352742
  - # 2
    frequency:     1.5284213851
  - # 3
    frequency:     2.5931326863
  - # 4
    frequency:     3.5484478018
  - # 5
    frequency:     3.6078537886
  - # 6
    frequency:     4.4422911729

- q-position: [   -0.3541667,    0.0208333,    0.0000000 ]
  weight: 24   
  band:
  - # 1
    frequency:     1.4392835616
  - # 2
    frequency:     1.4872263876
  - # 3
    frequency:     2.4918558270
  - # 4
    frequency:     3.5136497598
  - # 5
    frequency:     3.5800308770
  - # 6
    frequency:     4.4791071063

- q-position: [   -0.3333333,    0.0208333,    0.0000000 ]
  weight: 24   
  band:
  - # 1
    frequency:     1.3901004770
  - # 2
    frequency:     1.4397676167
  - # 3
    frequency:     2.3895448365
  - # 4
    frequency:     3.4685781887
  - # 5
    frequency:     3.5405157087
  - # 6
    frequency:     4.5032232559

- q-position: [   -0.3125000,    0.0208333,    0.0000000 ]
  weight: 24   
  band:
  - # 1
    frequency:     1.3367077467
  - # 2
    frequency:     1.3864703440
  - # 3
    frequency:     2.2867880952
  - # 4
    frequency:     3.4112895241
  - # 5
    frequency:     3.4873633489
  - # 6
    frequency:     4.5127592762

- q-position: [   -0.2916667,    0.0208333,    0.0000000 ]
  weight: 24   
  band:
  - # 1
    frequency:     1.2794389869
  - # 2
    frequency:     1.3277512639
  - # 3
    frequency:     2.1832483111
  - # 4
    frequency:     3.3399647016
  - # 5
    frequency:     3.4188029709
  - # 6
    frequency:     4.5068142134

- q-position: [   -0.2708333,    0.0208333,    0.0000000 ]
  weight: 24   
  band:
  - # 1
    frequency:     1.2185392378
  - # 2
    frequency:     1.2640101024
  - # 3
    frequency:     2.0779479308
  - # 4
    frequency:     3.2530208049
  - # 5
    frequency:     3.3333392553
  - # 6
    frequency:     4.4853318449

- q-position: [   -0.2500000,    0.0208333,    0.0000000 ]
  weight: 24   
  band:
  - # 1
    frequency:     1.1541738509
  - # 2
    frequency:     1.1956268770
  - # 3
    frequency:     1.9695279263
  - # 4
    frequency:     3.1492188152
  - # 5
    frequency:     3.2298491972
  - # 6
    frequency:     4.4489995977

- q-position: [   -0.2291667,    0.0208333,    0.0000000 ]
  weight: 24   
  band:
  - # 1
    frequency:     1.0864432123
  - # 2
    frequency:     1.1229635302
  - # 3
    frequency:     1.8564746048
  - # 4
    frequency:     3.0277697838
  - # 5
    frequency:     3.1076766899
  - # 6
    frequency:     4.3991658560

- q-position: [   -0.2083333,    0.0208333,    0.0000000 ]
  weight: 24   
  band:
  - # 1
    frequency:     1.0153991925
  - # 2
    frequency:     1.0463680524
  - # 3
    frequency:     1.7373088489
  - # 4
    frequency:     2.8884440189
  - # 5
    frequency:     2.9667293500
  - # 6
    frequency:     4.3377640931

- q-position: [   -0.1875000,    0.0208333,    0.0000000 ]
  weight: 24   
  band:
  - # 1
    frequency:     0.9410584234
  - # 2
    frequency:     0.9661780959
  - # 3
    frequency:     1.6107356830
  - # 4
    frequency:     2.7316917859
  - # 5
    frequency:     2.8075854216
  - # 6
    frequency:     4.2672349657

- q-position: [   -0.1666667,    0.0208333,    0.0000000 ]
  weight: 24   
  band:
  - # 1
    frequency:     0.8634057162
  - # 2
    frequency:     0.8827190113
  - # 3
    frequency:     1.4757575675
  - # 4
    frequency:     2.5587906680
  - # 5
    frequency:     2.6316243132
  - # 6
    frequency:     4.1904391045

- q-position: [   -0.1458333,    0.0208333,    0.0000000 ]
  weight: 24   
  band:
  - # 1
    frequency:     0.7823773959
  - # 2
    frequency:     0.7962875028
  - # 3
    frequency:     1.3317602875
  - # 4
    frequency:     2.3720456710
  - # 5
    frequency:     2.4412038612
  - # 6
    frequency:     4.1105545974

- q-position: [   -0.1250000,    0.0208333,    0.0000000 ]
  weight: 24   
  band:
  - # 1
    frequency:     0.6978092640
  - # 2
    frequency:     0.7071061650
  - # 3
    frequency:     1.1785850806
  - # 4
    frequency:     2.1750848261
  - # 5
    frequency:     2.2399222537
  - # 6
    frequency:     4.0309549016

- q-position: [   -0.1041667,    0.0208333,    0.0000000 ]
  weight: 24   
  band:
  - # 1
    frequency:     0.6093327064
  - # 2
    frequency:     0.6152282863
  - # 3
    frequency:     1.0166072918
  - # 4
    frequency:     1.9733127578
  - # 5
    frequency:     2.0330210054
  - # 6
    frequency:     3.9550654744

- q-position: [   -0.0833333,    0.0208333,    0.0000000 ]
  weight: 24   
  band:
  - # 1
    frequency:     0.5162333421
  - # 2
    frequency:     0.5203842483
  - # 3
    frequency:     0.8468610388
  - # 4
    frequency:     1.7745853155
  - # 5
    frequency:     1.8279894996
  - # 6
    frequency:     3.8861998146

- q-position: [   -0.0625000,    0.0208333,    0.0000000 ]
  weight: 24   
  band:
  - # 1
    frequency:     0.4174583879
  - # 2
    frequency:     0.4218697528
  - # 3
    frequency:     0.6713208986
  - # 4
    frequency:     1.5900677321
  - # 5
    frequency:     1.6353469113
  - # 6
    frequency:     3.8273738537

- q-position: [   -0.0416667,    0.0208333,    0.0000000 ]
  weight: 24   
  band:
  - # 1
    frequency:     0.3126149059
  - # 2
    frequency:     0.3190527235
  - # 3
    frequency:     0.4937597241
  - # 4
    frequency:     1.4348719082
  - # 5
    frequency:     1.4692099500
  - # 6
    frequency:     3.7810778871

- q-position: [   -0.0208333,    0.0208333,    0.0000000 ]
  weight: 12   
  band:
  - # 1
    frequency:     0.2071487379
  - # 2
    frequency:     0.2148125877
  - # 3
    frequency:     0.3233297063
  - # 4
    frequency:     1.3274758609
  - # 5
    frequency:     1.3464566117
  - # 6
    frequency:     3.7489246771

- q-position: [    0.0416667,    0.0416667,    0.0000000 ]
  weight: 6    
  band:
  - # 1
    frequency:     0.2828980717
  - # 2
    frequency:     0.2828980717
  - # 3
    frequency:     0.4668251004
  - # 4
    frequency:     1.3988191752
  - # 5
    frequency:     1.3988191752
  - # 6
    frequency:     3.7845390061

- q-position: [    0.0625000,    0.0416667,    0.0000000 ]
  weight: 24   
  band:
  - # 1
    frequency:     0.3582596501
  - # 2
    frequency:     0.3603095673
  - # 3
    frequency:     0.5990229783
  - # 4
    frequency:     1.4941175775
  - # 5
    frequency:     1.5024449490
  - # 6
    frequency:     3.8176554707

- q-position: [    0.0833333,    0.0416667,    0.0000000 ]
  weight: 24   
  band:
  - # 1
    frequency:     0.4443620683
  - # 2
    frequency:     0.4498607814
  - # 3
    frequency:     0.7503374666
  - # 4
    frequency:     1.6330500130
  - # 5
    frequency:     1.6590166238
  - # 6
    frequency:     3.8608732781

- q-position: [    0.1041667,    0.0416667,    0.0000000 ]
  weight: 24   
  band:
  - # 1
    frequency:     0.5312908044
  - # 2
    frequency:     0.5408768603
  - # 3
    frequency:     0.9080994285
  - # 4
    frequency:     1.8007726507
  - # 5
    frequency:     1.8458936273
  - # 6
    frequency:     3.9145494958

- q-position: [    0.1250000,    0.0416667,    0.0000000 ]
  weight: 24   
  band:
  - # 1
    frequency:     0.6160478218
  - # 2
    frequency:     0.6310653937
  - # 3
    frequency:     1.0654864825
  - # 4
    frequency:     1.9839093304
  - # 5
    frequency:     2.0468604704
  - # 6
    frequency:     3.9772142267

- q-position: [    0.1458333,    0.0416667,    0.0000000 ]
  weight: 24   
  band:
  - # 1
    frequency:     0.6979802225
  - # 2
    frequency:     0.7200305862
  - # 3
    frequency:     1.2185813347
  - # 4
    frequency:     2.1719240503
  - # 5
    frequency:     2.2507907361
  - # 6
    frequency:     4.0464207997

- q-position: [    0.1666667,    0.0416667,    0.0000000 ]
  weight: 24   
  band:
  - # 1
    frequency:     0.7770475001
  - # 2
    frequency:     0.8074945588
  - # 3
    frequency:     1.3651700022
  - # 4
    frequency:     2.3570811612
  - # 5
    frequency:     2.4500084984
  - # 6
    frequency:     4.1192513515

- q-position: [    0.1875000,    0.0416667,    0.0000000 ]
  weight: 24   
  band:
  - # 1
    frequency:     0.8533189784
  - # 2
    frequency:     0.8930464284
  - # 3
    frequency:     1.5041393656
  - # 4
    frequency:     2.5339180702
  - # 5
    frequency:     2.6391749267
  - # 6
    frequency:     4.1925931203

- q-position: [    0.2083333,    0.0416667,    0.0000000 ]
  weight: 24   
  band:
  - # 1
    frequency:     0.9268654342
  - # 2
    frequency:     0.9761916561
  - # 3
    frequency:     1.6351564851
  - # 4
    frequency:     2.6987129365
  - # 5
    frequency:     2.8145929458
  - # 6
    frequency:     4.2633285044

- q-position: [    0.2291667,    0.0416667,    0.0000000 ]
  weight: 24   
  band:
  - # 1
    frequency:     0.9977456582
  - # 2
    frequency:     1.0564140066
  - # 3
    frequency:     1.7584805014
  - # 4
    frequency:     2.8490776889
  - # 5
    frequency:     2.9737841727
  - # 6
    frequency:     4.3284853174

- q-position: [    0.2500000,    0.0416667,    0.0000000 ]
  weight: 24   
  band:
  - # 1
    frequency:     1.0660026850
  - # 2
    frequency:     1.1332087452
  - # 3
    frequency:     1.8748305670
  - # 4
    frequency:     2.9836689516
  - # 5
    frequency:     3.1152277419
  - # 6
    frequency:     4.3853608833

- q-position: [    0.2708333,    0.0416667,    0.0000000 ]
  weight: 24   
  band:
  - # 1
    frequency:     1.1316525491
  - # 2
    frequency:     1.2060927353
  - # 3
    frequency:     1.9852685091
  - # 4
    frequency:     3.1019801353
  - # 5
    frequency:     3.2381899552
  - # 6
    frequency:     4.4316259715

- q-position: [    0.2916667,    0.0416667,    0.0000000 ]
  weight: 24   
  band:
  - # 1
    frequency:     1.1946664974
  - # 2
    frequency:     1.2746006422
  - # 3
    frequency:     2.0910719713
  - # 4
    frequency:     3.2041824671
  - # 5
    frequency:     3.3426020006
  - # 6
    frequency:     4.4654140356

- q-position: [    0.3125000,    0.0416667,    0.0000000 ]
  weight: 24   
  band:
  - # 1
    frequency:     1.2549510306
  - # 2
    frequency:     1.3382740043
  - # 3
    frequency:     2.1935833041
  - # 4
    frequency:     3.2909929400
  - # 5
    frequency:     3.4289607776
  - # 6
    frequency:     4.4854020025

- q-position: [    0.3333333,    0.0416667,    0.0000000 ]
  weight: 24   
  band:
  - # 1
    frequency:     1.3123299188
  - # 2
    frequency:     1.3966486715
  - # 3
    frequency:     2.2940262718
  - # 4
    frequency:     3.3635556337
  - # 5
    frequency:     3.4982386170
  - # 6
    frequency:     4.4908895810

- q-position: [    0.3541667,    0.0416667,    0.0000000 ]
  weight: 24   
  band:
  - # 1
    frequency:     1.3665314240
  - # 2
    frequency:     1.4492461399
  - # 3
    frequency:     2.3932882268
  - # 4
    frequency:     3.4233287110
  - # 5
    frequency:     3.5517941208
  - # 6
    frequency:     4.4818850451

- q-position: [    0.3750000,    0.0416667,    0.0000000 ]
  weight: 24   
  band:
  - # 1
    frequency:     1.4171830753
  - # 2
    frequency:     1.4955741004
  - # 3
    frequency:     2.4916697613
  - # 4
    frequency:     3.4719732204
  - # 5
    frequency:     3.5912799834
  - # 6
    frequency:     4.4592072883

- q-position: [    0.3958333,    0.0416667,    0.0000000 ]
  weight: 24   
  band:
  - # 1
    frequency:     1.4638155886
  - # 2
    frequency:     1.5351396544
  - # 3
    frequency:     2.5886069013
  - # 4
    frequency:     3.5112423735
  - # 5
    frequency:     3.6185451922
  - # 6
    frequency:     4.4246163715

- q-position: [    0.4166667,    0.0416667,    0.0000000 ]
  weight: 24   
  band:
  - # 1
    frequency:     1.5058768059
  - # 2
    frequency:     1.5674750837
  - # 3
    frequency:     2.6823753136
  - # 4
    frequency:     3.5428717777
  - # 5
    frequency:     3.6355284826
  - # 6
    frequency:     4.3809841393

- q-position: [    0.4375000,    0.0416667,    0.0000000 ]
  weight: 24   
  band:
  - # 1
    frequency:     1.5427556983
  - # 2
    frequency:     1.5921723243
  - # 3
    frequency:     2.7698044586
  - # 4
    frequency:     3.5684725954
  - # 5
    frequency:     3.6441370093
  - # 6
    frequency:     4.3324992040

- q-position: [    0.4583333,    0.0416667,    0.0000000 ]
  weight: 24   
  band:
  - # 1