nqpoint: 404    
npath: 4      
natom: 2      
phonon:
- q-position: [    0.0000000,    0.0000000,    0.0000000 ]
  distance:    0.0000000
  band:
  - # 1
    frequency:   -0.0011349251
  - # 2
    frequency:   -0.0011349251
  - # 3
    frequency:   -0.0010722300
  - # 4
    frequency:    1.1397098280
  - # 5
    frequency:    1.1397098280
  - # 6
    frequency:    3.2995577122

- q-position: [    0.0050000,    0.0025000,    0.0075000 ]
  distance:    0.0017247
  band:
  - # 1
    frequency:    0.0348231145
  - # 2
    frequency:    0.0377851327
  - # 3
    frequency:    0.0550898424
  - # 4
    frequency:    1.1419251940
  - # 5
    frequency:    1.1422320131
  - # 6
    frequency:    3.2998265275

- q-position: [    0.0100000,    0.0050000,    0.0150000 ]
  distance:    0.0034493
  band:
  - # 1
    frequency:    0.0695231735
  - # 2
    frequency:    0.0754115642
  - # 3
    frequency:    0.1101465228
  - # 4
    frequency:    1.1485336727
  - # 5
    frequency:    1.1497576323
  - # 6
    frequency:    3.3006290106

- q-position: [    0.0150000,    0.0075000,    0.0225000 ]
  distance:    0.0051740
  band:
  - # 1
    frequency:    0.1039212337
  - # 2
    frequency:    0.1126735881
  - # 3
    frequency:    0.1651027564
  - # 4
    frequency:    1.1594241650
  - # 5
    frequency:    1.1621655900
  - # 6
    frequency:    3.3019533193

- q-position: [    0.0200000,    0.0100000,    0.0300000 ]
  distance:    0.0068987
  band:
  - # 1
    frequency:    0.1378875836
  - # 2
    frequency:    0.1494190733
  - # 3
    frequency:    0.2199143636
  - # 4
    frequency:    1.1744171982
  - # 5
    frequency:    1.1792596768
  - # 6
    frequency:    3.3037798695

- q-position: [    0.0250000,    0.0125000,    0.0375000 ]
  distance:    0.0086233
  band:
  - # 1
    frequency:    0.1713033651
  - # 2
    frequency:    0.1855168956
  - # 3
    frequency:    0.2745369277
  - # 4
    frequency:    1.1932729031
  - # 5
    frequency:    1.2007766528
  - # 6
    frequency:    3.3060815622

- q-position: [    0.0300000,    0.0150000,    0.0450000 ]
  distance:    0.0103480
  band:
  - # 1
    frequency:    0.2040659462
  - # 2
    frequency:    0.2208632613
  - # 3
    frequency:    0.3289279043
  - # 4
    frequency:    1.2157011357
  - # 5
    frequency:    1.2263968523
  - # 6
    frequency:    3.3088240951

- q-position: [    0.0350000,    0.0175000,    0.0525000 ]
  distance:    0.0120727
  band:
  - # 1
    frequency:    0.2360900870
  - # 2
    frequency:    0.2553827418
  - # 3
    frequency:    0.3830470904
  - # 4
    frequency:    1.2413728757
  - # 5
    frequency:    1.2557565611
  - # 6
    frequency:    3.3119663538

- q-position: [    0.0400000,    0.0200000,    0.0600000 ]
  distance:    0.0137973
  band:
  - # 1
    frequency:    0.2673074052
  - # 2
    frequency:    0.2890265184
  - # 3
    frequency:    0.4368567789
  - # 4
    frequency:    1.2699320058
  - # 5
    frequency:    1.2884612554
  - # 6
    frequency:    3.3154608754

- q-position: [    0.0450000,    0.0225000,    0.0675000 ]
  distance:    0.0155220
  band:
  - # 1
    frequency:    0.2976647599
  - # 2
    frequency:    0.3217687671
  - # 3
    frequency:    0.4903217762
  - # 4
    frequency:    1.3010066570
  - # 5
    frequency:    1.3240987346
  - # 6
    frequency:    3.3192543773

- q-position: [    0.0500000,    0.0250000,    0.0750000 ]
  distance:    0.0172467
  band:
  - # 1
    frequency:    0.3271220278
  - # 2
    frequency:    0.3536020535
  - # 3
    frequency:    0.5434093408
  - # 4
    frequency:    1.3342194812
  - # 5
    frequency:    1.3622512762
  - # 6
    frequency:    3.3232883419

- q-position: [    0.0550000,    0.0275000,    0.0825000 ]
  distance:    0.0189713
  band:
  - # 1
    frequency:    0.3556496884
  - # 2
    frequency:    0.3845325234
  - # 3
    frequency:    0.5960890786
  - # 4
    frequency:    1.3691964241
  - # 5
    frequency:    1.4025061493
  - # 6
    frequency:    3.3274996490

- q-position: [    0.0600000,    0.0300000,    0.0900000 ]
  distance:    0.0206960
  band:
  - # 1
    frequency:    0.3832265381
  - # 2
    frequency:    0.4145754880
  - # 3
    frequency:    0.6483328114
  - # 4
    frequency:    1.4055737997
  - # 5
    frequency:    1.4444641108
  - # 6
    frequency:    3.3318212450

- q-position: [    0.0650000,    0.0325000,    0.0975000 ]
  distance:    0.0224206
  band:
  - # 1
    frequency:    0.4098377416
  - # 2
    frequency:    0.4437517696
  - # 3
    frequency:    0.7001144291
  - # 4
    frequency:    1.4430036548
  - # 5
    frequency:    1.4877457792
  - # 6
    frequency:    3.3361828414

- q-position: [    0.0700000,    0.0350000,    0.1050000 ]
  distance:    0.0241453
  band:
  - # 1
    frequency:    0.4354733203
  - # 2
    frequency:    0.4720849607
  - # 3
    frequency:    0.7514097259
  - # 4
    frequency:    1.4811575596
  - # 5
    frequency:    1.5319960128
  - # 6
    frequency:    3.3405116317

- q-position: [    0.0750000,    0.0375000,    0.1125000 ]
  distance:    0.0258700
  band:
  - # 1
    frequency:    0.4601270932
  - # 2
    frequency:    0.4995995800
  - # 3
    frequency:    0.8021962188
  - # 4
    frequency:    1.5197290420
  - # 5
    frequency:    1.5768865604
  - # 6
    frequency:    3.3447330189

- q-position: [    0.0800000,    0.0400000,    0.1200000 ]
  distance:    0.0275946
  band:
  - # 1
    frequency:    0.4837960274
  - # 2
    frequency:    0.5263200109
  - # 3
    frequency:    0.8524529433
  - # 4
    frequency:    1.5584349221
  - # 5
    frequency:    1.6221173235
  - # 6
    frequency:    3.3487713447

- q-position: [    0.0850000,    0.0425000,    0.1275000 ]
  distance:    0.0293193
  band:
  - # 1
    frequency:    0.5064799272
  - # 2
    frequency:    0.5522700581
  - # 3
    frequency:    0.9021602229
  - # 4
    frequency:    1.5970158032
  - # 5
    frequency:    1.6674165728
  - # 6
    frequency:    3.3525506138

- q-position: [    0.0900000,    0.0450000,    0.1350000 ]
  distance:    0.0310440
  band:
  - # 1
    frequency:    0.5281813785
  - # 2
    frequency:    0.5774729546
  - # 3
    frequency:    0.9512994087
  - # 4
    frequency:    1.6352359474
  - # 5
    frequency:    1.7125404305
  - # 6
    frequency:    3.3559952056

- q-position: [    0.0950000,    0.0475000,    0.1425000 ]
  distance:    0.0327686
  band:
  - # 1
    frequency:    0.5489058700
  - # 2
    frequency:    0.6019516632
  - # 3
    frequency:    0.9998525877
  - # 4
    frequency:    1.6728827309
  - # 5
    frequency:    1.7572718734
  - # 6
    frequency:    3.3590305682

- q-position: [    0.1000000,    0.0500000,    0.1500000 ]
  distance:    0.0344933
  band:
  - # 1
    frequency:    0.5686620227
  - # 2
    frequency:    0.6257293489
  - # 3
    frequency:    1.0478022609
  - # 4
    frequency:    1.7097658314
  - # 5
    frequency:    1.8014194569
  - # 6
    frequency:    3.3615838904

- q-position: [    0.1050000,    0.0525000,    0.1575000 ]
  distance:    0.0362180
  band:
  - # 1
    frequency:    0.5874618719
  - # 2
    frequency:    0.6488299237
  - # 3
    frequency:    1.0951309915
  - # 4
    frequency:    1.7457162624
  - # 5
    frequency:    1.8448159029
  - # 6
    frequency:    3.3635847463

- q-position: [    0.1100000,    0.0550000,    0.1650000 ]
  distance:    0.0379426
  band:
  - # 1
    frequency:    0.6053211589
  - # 2
    frequency:    0.6712785927
  - # 3
    frequency:    1.1418210275
  - # 4
    frequency:    1.7805853381
  - # 5
    frequency:    1.8873166511
  - # 6
    frequency:    3.3649657112

- q-position: [    0.1150000,    0.0575000,    0.1725000 ]
  distance:    0.0396673
  band:
  - # 1
    frequency:    0.6222596005
  - # 2
    frequency:    0.6931023514
  - # 3
    frequency:    1.1878539026
  - # 4
    frequency:    1.8142436239
  - # 5
    frequency:    1.9287984357
  - # 6
    frequency:    3.3656629462

- q-position: [    0.1200000,    0.0600000,    0.1800000 ]
  distance:    0.0413920
  band:
  - # 1
    frequency:    0.6383011129
  - # 2
    frequency:    0.7143304016
  - # 3
    frequency:    1.2332100189
  - # 4
    frequency:    1.8465799098
  - # 5
    frequency:    1.9691579254
  - # 6
    frequency:    3.3656167502

- q-position: [    0.1250000,    0.0625000,    0.1875000 ]
  distance:    0.0431166
  band:
  - # 1
    frequency:    0.6534739751
  - # 2
    frequency:    0.7349944623
  - # 3
    frequency:    1.2778682193
  - # 4
    frequency:    1.8775002257
  - # 5
    frequency:    2.0083104414
  - # 6
    frequency:    3.3647720790

- q-position: [    0.1300000,    0.0650000,    0.1950000 ]
  distance:    0.0448413
  band:
  - # 1
    frequency:    0.6678109191
  - # 2
    frequency:    0.7551289648
  - # 3
    frequency:    1.3218053528
  - # 4
    frequency:    1.9069269096
  - # 5
    frequency:    2.0461887601
  - # 6
    frequency:    3.3630790318

- q-position: [    0.1350000,    0.0675000,    0.2025000 ]
  distance:    0.0465660
  band:
  - # 1
    frequency:    0.6813491392
  - # 2
    frequency:    0.7747711235
  - # 3
    frequency:    1.3649958399
  - # 4
    frequency:    1.9347977304
  - # 5
    frequency:    2.0827419941
  - # 6
    frequency:    3.3604933064

- q-position: [    0.1400000,    0.0700000,    0.2100000 ]
  distance:    0.0482906
  band:
  - # 1
    frequency:    0.6941302167
  - # 2
    frequency:    0.7939608796
  - # 3
    frequency:    1.4074112455
  - # 4
    frequency:    1.9610650638
  - # 5
    frequency:    2.1179345434
  - # 6
    frequency:    3.3569766229

- q-position: [    0.1450000,    0.0725000,    0.2175000 ]
  distance:    0.0500153
  band:
  - # 1
    frequency:    0.7061999544
  - # 2
    frequency:    0.8127407198
  - # 3
    frequency:    1.4490198641
  - # 4
    frequency:    1.9856951148
  - # 5
    frequency:    2.1517451027
  - # 6
    frequency:    3.3524971203

- q-position: [    0.1500000,    0.0750000,    0.2250000 ]
  distance:    0.0517400
  band:
  - # 1
    frequency:    0.7176081194
  - # 2
    frequency:    0.8311553712
  - # 3
    frequency:    1.4897863267
  - # 4
    frequency:    2.0086671801
  - # 5
    frequency:    2.1841657105
  - # 6
    frequency:    3.3470297243

- q-position: [    0.1550000,    0.0775000,    0.2325000 ]
  distance:    0.0534646
  band:
  - # 1
    frequency:    0.7284080940
  - # 2
    frequency:    0.8492513806
  - # 3
    frequency:    1.5296712382
  - # 4
    frequency:    2.0299729438
  - # 5
    frequency:    2.2152008234
  - # 6
    frequency:    3.3405564921

- q-position: [    0.1600000,    0.0800000,    0.2400000 ]
  distance:    0.0551893
  band:
  - # 1
    frequency:    0.7386564343
  - # 2
    frequency:    0.8670765839
  - # 3
    frequency:    1.5686308535
  - # 4
    frequency:    2.0496157957
  - # 5
    frequency:    2.2448663990
  - # 6
    frequency:    3.3330669334

- q-position: [    0.1650000,    0.0825000,    0.2475000 ]
  distance:    0.0569139
  band:
  - # 1
    frequency:    0.7484123380
  - # 2
    frequency:    0.8846794778
  - # 3
    frequency:    1.6066168073
  - # 4
    frequency:    2.0676101676
  - # 5
    frequency:    2.2731889690
  - # 6
    frequency:    3.3245583102

- q-position: [    0.1700000,    0.0850000,    0.2550000 ]
  distance:    0.0586386
  band:
  - # 1
    frequency:    0.7577370265
  - # 2
    frequency:    0.9021085057
  - # 3
    frequency:    1.6435759087
  - # 4
    frequency:    2.0839808778
  - # 5
    frequency:    2.3002046836
  - # 6
    frequency:    3.3150359179

- q-position: [    0.1750000,    0.0875000,    0.2625000 ]
  distance:    0.0603633
  band:
  - # 1
    frequency:    0.7666930467
  - # 2
    frequency:    0.9194112726
  - # 3
    frequency:    1.6794500207
  - # 4
    frequency:    2.0987624787
  - # 5
    frequency:    2.3259583069
  - # 6
    frequency:    3.3045133462

- q-position: [    0.1800000,    0.0900000,    0.2700000 ]
  distance:    0.0620879
  band:
  - # 1
    frequency:    0.7753435003
  - # 2
    frequency:    0.9366337067
  - # 3
    frequency:    1.7141760429
  - # 4
    frequency:    2.1119986007
  - # 5
    frequency:    2.3505021439
  - # 6
    frequency:    3.2930127213

- q-position: [    0.1850000,    0.0925000,    0.2775000 ]
  distance:    0.0638126
  band:
  - # 1
    frequency:    0.7837512127
  - # 2
    frequency:    0.9538191862
  - # 3
    frequency:    1.7476860220
  - # 4
    frequency:    2.1237412876
  - # 5
    frequency:    2.3738948747
  - # 6
    frequency:    3.2805649263

- q-position: [    0.1900000,    0.0950000,    0.2850000 ]
  distance:    0.0655373
  band:
  - # 1
    frequency:    0.7919778563
  - # 2
    frequency:    0.9710076499
  - # 3
    frequency:    1.7799074137
  - # 4
    frequency:    2.1340503192
  - # 5
    frequency:    2.3962002793
  - # 6
    frequency:    3.2672097967

- q-position: [    0.1950000,    0.0975000,    0.2925000 ]
  distance:    0.0672619
  band:
  - # 1
    frequency:    0.8000830432
  - # 2
    frequency:    0.9882347152
  - # 3
    frequency:    1.8107635255
  - # 4
    frequency:    2.1429925174
  - # 5
    frequency:    2.4174858317
  - # 6
    frequency:    3.2529962823

- q-position: [    0.2000000,    0.1000000,    0.3000000 ]
  distance:    0.0689866
  band:
  - # 1
    frequency:    0.8081234096
  - # 2
    frequency:    1.0055308206
  - # 3
    frequency:    1.8401741639
  - # 4
    frequency:    2.1506410333
  - # 5
    frequency:    2.4378211541
  - # 6
    frequency:    3.2379825681

- q-position: [    0.2050000,    0.1025000,    0.3075000 ]
  distance:    0.0707113
  band:
  - # 1
    frequency:    0.8161517126
  - # 2
    frequency:    1.0229204150
  - # 3
    frequency:    1.8680565077
  - # 4
    frequency:    2.1570746130
  - # 5
    frequency:    2.4572763282
  - # 6
    frequency:    3.2222361360

- q-position: [    0.2100000,    0.1050000,    0.3150000 ]
  distance:    0.0724359
  band:
  - # 1
    frequency:    0.8242159634
  - # 2
    frequency:    1.0404212107
  - # 3
    frequency:    1.8943262207
  - # 4
    frequency:    2.1623768418
  - # 5
    frequency:    2.4759200777
  - # 6
    frequency:    3.2058337472

- q-position: [    0.2150000,    0.1075000,    0.3225000 ]
  distance:    0.0741606
  band:
  - # 1
    frequency:    0.8323586204
  - # 2
    frequency:    1.0580435142
  - # 3
    frequency:    1.9188988055
  - # 4
    frequency:    2.1666353669
  - # 5
    frequency:    2.4938178552
  - # 6
    frequency:    3.1888613178

- q-position: [    0.2200000,    0.1100000,    0.3300000 ]
  distance:    0.0758853
  band:
  - # 1
    frequency:    0.8406158676
  - # 2
    frequency:    1.0757896495
  - # 3
    frequency:    1.9416911811
  - # 4
    frequency:    2.1699410989
  - # 5
    frequency:    2.5110298937
  - # 6
    frequency:    3.1714136500

- q-position: [    0.2250000,    0.1125000,    0.3375000 ]
  distance:    0.0776099
  band:
  - # 1
    frequency:    0.8490169985
  - # 2
    frequency:    1.0936534791
  - # 3
    frequency:    1.9626234555
  - # 4
    frequency:    2.1723873948
  - # 5
    frequency:    2.5276093067
  - # 6
    frequency:    3.1535939742

- q-position: [    0.2300000,    0.1150000,    0.3450000 ]
  distance:    0.0793346
  band:
  - # 1
    frequency:    0.8575839272
  - # 2
    frequency:    1.1116200277
  - # 3
    frequency:    1.9816208455
  - # 4
    frequency:    2.1740692257
  - # 5
    frequency:    2.5436003460
  - # 6
    frequency:    3.1355132487

- q-position: [    0.2350000,    0.1175000,    0.3525000 ]
  distance:    0.0810593
  band:
  - # 1
    frequency:    0.8663308390
  - # 2
    frequency:    1.1296652079
  - # 3
    frequency:    1.9986156904
  - # 4
    frequency:    2.1750823333
  - # 5
    frequency:    2.5590369416
  - # 6
    frequency:    3.1172891564

- q-position: [    0.2400000,    0.1200000,    0.3600000 ]
  distance:    0.0827839
  band:
  - # 1
    frequency:    0.8752639953
  - # 2
    frequency:    1.1477556419
  - # 3
    frequency:    2.0135495086
  - # 4
    frequency:    2.1755223799
  - # 5
    frequency:    2.5739416479
  - # 6
    frequency:    3.0990447382

- q-position: [    0.2450000,    0.1225000,    0.3675000 ]
  distance:    0.0845086
  band:
  - # 1
    frequency:    0.8843816954
  - # 2
    frequency:    1.1658485697
  - # 3
    frequency:    2.0263750571
  - # 4
    frequency:    2.1754841000
  - # 5
    frequency:    2.5883251026
  - # 6
    frequency:    3.0809066054

- q-position: [    0.2500000,    0.1250000,    0.3750000 ]
  distance:    0.0862333
  band:
  - # 1
    frequency:    0.8936743965
  - # 2
    frequency:    1.1838918309
  - # 3
    frequency:    2.0370583780
  - # 4
    frequency:    2.1750604597
  - # 5
    frequency:    2.6021860644
  - # 6
    frequency:    3.0630026929

- q-position: [    0.2550000,    0.1275000,    0.3825000 ]
  distance:    0.0879579
  band:
  - # 1
    frequency:    0.9031249878
  - # 2
    frequency:    1.2018239035
  - # 3
    frequency:    2.0455808372
  - # 4
    frequency:    2.1743418318
  - # 5
    frequency:    2.6155120430
  - # 6
    frequency:    3.0454595492

- q-position: [    0.2600000,    0.1300000,    0.3900000 ]
  distance:    0.0896826
  band:
  - # 1
    frequency:    0.9127092071
  - # 2
    frequency:    1.2195739841
  - # 3
    frequency:    2.0519411723
  - # 4
    frequency:    2.1734151982
  - # 5
    frequency:    2.6282804660
  - # 6
    frequency:    3.0283992076

- q-position: [    0.2650000,    0.1325000,    0.3975000 ]
  distance:    0.0914073
  band:
  - # 1
    frequency:    0.9223961873
  - # 2
    frequency:    1.2370620890
  - # 3
    frequency:    2.0561575610
  - # 4
    frequency:    2.1723633874
  - # 5
    frequency:    2.6404602617
  - # 6
    frequency:    3.0119357583

- q-position: [    0.2700000,    0.1350000,    0.4050000 ]
  distance:    0.0931319
  band:
  - # 1
    frequency:    0.9321491148
  - # 2
    frequency:    1.2541991654
  - # 3
    frequency:    2.0582696922
  - # 4
    frequency:    2.1712643581
  - # 5
    frequency:    2.6520136794
  - # 6
    frequency:    2.9961718212

- q-position: [    0.2750000,    0.1375000,    0.4125000 ]
  distance:    0.0948566
  band:
  - # 1
    frequency:    0.9419259812
  - # 2
    frequency:    1.2708872011
  - # 3
    frequency:    2.0583407647
  - # 4
    frequency:    2.1701905408
  - # 5
    frequency:    2.6628981232
  - # 6
    frequency:    2.9811952153

- q-position: [    0.2800000,    0.1400000,    0.4200000 ]
  distance:    0.0965812
  band:
  - # 1
    frequency:    0.9516804067
  - # 2
    frequency:    1.2870193342
  - # 3
    frequency:    2.0564592838
  - # 4
    frequency:    2.1692082463
  - # 5
    frequency:    2.6730677486
  - # 6
    frequency:    2.9670761907

- q-position: [    0.2850000,    0.1425000,    0.4275000 ]
  distance:    0.0983059
  band:
  - # 1
    frequency:    0.9613625149
  - # 2
    frequency:    1.3024799824
  - # 3
    frequency:    2.0527404641
  - # 4
    frequency:    2.1683771518
  - # 5
    frequency:    2.6824745669
  - # 6
    frequency:    2.9538656380

- q-position: [    0.2900000,    0.1450000,    0.4350000 ]
  distance:    0.1000306
  band:
  - # 1
    frequency:    0.9709198385
  - # 2
    frequency:    1.3171450313
  - # 3
    frequency:    2.0473270227
  - # 4
    frequency:    2.1677498750
  - # 5
    frequency:    2.6910688203
  - # 6
    frequency:    2.9415946750

- q-position: [    0.2950000,    0.1475000,    0.4425000 ]
  distance:    0.1017552
  band:
  - # 1
    frequency:    0.9802982366
  - # 2
    frequency:    1.3308821596
  - # 3
    frequency:    2.0403891406
  - # 4
    frequency:    2.1673716431
  - # 5
    frequency:    2.6987984443
  - # 6
    frequency:    2.9302759216

- q-position: [    0.3000000,    0.1500000,    0.4500000 ]
  distance:    0.1034799
  band:
  - # 1
    frequency:    0.9894428048
  - # 2
    frequency:    1.3435514221
  - # 3
    frequency:    2.0321234024
  - # 4
    frequency:    2.1672800641
  - # 5
    frequency:    2.7056075432
  - # 6
    frequency:    2.9199065972

- q-position: [    0.3050000,    0.1525000,    0.4575000 ]
  distance:    0.1052046
  band:
  - # 1
    frequency:    0.9982987650
  - # 2
    frequency:    1.3550062691
  - # 3
    frequency:    2.0227505576
  - # 4
    frequency:    2.1675050054
  - # 5
    frequency:    2.7114339860
  - # 6
    frequency:    2.9104732927

- q-position: [    0.3100000,    0.1550000,    0.4650000 ]
  distance:    0.1069292
  band:
  - # 1
    frequency:    1.0068123175
  - # 2
    frequency:    1.3650952398
  - # 3
    frequency:    2.0125119840
  - # 4
    frequency:    2.1680685828
  - # 5
    frequency:    2.7162065226
  - # 6
    frequency:    2.9019578899

- q-position: [    0.3150000,    0.1575000,    0.4725000 ]
  distance:    0.1086539
  band:
  - # 1
    frequency:    1.0149314482
  - # 2
    frequency:    1.3736646190
  - # 3
    frequency:    2.0016647500
  - # 4
    frequency:    2.1689852593
  - # 5
    frequency:    2.7198422170
  - # 6
    frequency:    2.8943436275

- q-position: [    0.3200000,    0.1600000,    0.4800000 ]
  distance:    0.1103786
  band:
  - # 1
    frequency:    1.0226066780
  - # 2
    frequency:    1.3805623604
  - # 3
    frequency:    1.9904751955
  - # 4
    frequency:    2.1702620531
  - # 5
    frequency:    2.7222454503
  - # 6
    frequency:    2.8876198284

- q-position: [    0.3250000,    0.1625000,    0.4875000 ]
  distance:    0.1121032
  band:
  - # 1
    frequency:    1.0297917511
  - # 2
    frequency:    1.3856435201
  - # 3
    frequency:    1.9792110025
  - # 4
    frequency:    2.1718988491
  - # 5
    frequency:    2.7233100501
  - # 6
    frequency:    2.8817835021

- q-position: [    0.3300000,    0.1650000,    0.4950000 ]
  distance:    0.1138279
  band:
  - # 1
    frequency:    1.0364442542
  - # 2
    frequency:    1.3887772675
  - # 3
    frequency:    1.9681318685
  - # 4
    frequency:    2.1738888068
  - # 5
    frequency:    2.7229258784
  - # 6
    frequency:    2.8768362960

- q-position: [    0.3350000,    0.1675000,    0.5025000 ]
  distance:    0.1155526
  band:
  - # 1
    frequency:    1.0425261670
  - # 2
    frequency:    1.3898552143
  - # 3
    frequency:    1.9574791680
  - # 4
    frequency:    2.1762188555
  - # 5
    frequency:    2.7209900152
  - # 6
    frequency:    2.8727765207

- q-position: [    0.3400000,    0.1700000,    0.5100000 ]
  distance:    0.1172772
  band:
  - # 1
    frequency:    1.0480043402
  - # 2
    frequency:    1.3888003630
  - # 3
    frequency:    1.9474653663
  - # 4
    frequency:    2.1788702647
  - # 5
    frequency:    2.7174205301
  - # 6
    frequency:    2.8695881772

- q-position: [    0.3450000,    0.1725000,    0.5175000 ]
  distance:    0.1190019
  band:
  - # 1
    frequency:    1.0528509042
  - # 2
    frequency:    1.3855755145
  - # 3
    frequency:    1.9382643626
  - # 4
    frequency:    2.1818192763
  - # 5
    frequency:    2.7121687784
  - # 6
    frequency:    2.8672310197

- q-position: [    0.3500000,    0.1750000,    0.5250000 ]
  distance:    0.1207266
  band:
  - # 1
    frequency:    1.0570436078
  - # 2
    frequency:    1.3801896936
  - # 3
    frequency:    1.9300041801
  - # 4
    frequency:    2.1850377839
  - # 5
    frequency:    2.7052259402
  - # 6
    frequency:    2.8656359471

- q-position: [    0.3550000,    0.1775000,    0.5325000 ]
  distance:    0.1224512
  band:
  - # 1
    frequency:    1.0605660912
  - # 2
    frequency:    1.3727012302
  - # 3
    frequency:    1.9227633134
  - # 4
    frequency:    2.1884940435
  - # 5
    frequency:    2.6966218963
  - # 6
    frequency:    2.8647076662

- q-position: [    0.3600000,    0.1800000,    0.5400000 ]
  distance:    0.1241759
  band:
  - # 1
    frequency:    1.0634080958
  - # 2
    frequency:    1.3632166697
  - # 3
    frequency:    1.9165714991
  - # 4
    frequency:    2.1921534003
  - # 5
    frequency:    2.6864180045
  - # 6
    frequency:    2.8643331087

- q-position: [    0.3650000,    0.1825000,    0.5475000 ]
  distance:    0.1259006
  band:
  - # 1
    frequency:    1.0655656134
  - # 2
    frequency:    1.3518855395
  - # 3
    frequency:    1.9114148174
  - # 4
    frequency:    2.1959790162
  - # 5
    frequency:    2.6746974325
  - # 6
    frequency:    2.8643920023

- q-position: [    0.3700000,    0.1850000,    0.5550000 ]
  distance:    0.1276252
  band:
  - # 1
    frequency:    1.0670409791
  - # 2
    frequency:    1.3388918699
  - # 3
    frequency:    1.9072441598
  - # 4
    frequency:    2.1999325832
  - # 5
    frequency:    2.6615564156
  - # 6
    frequency:    2.8647662727

- q-position: [    0.3750000,    0.1875000,    0.5625000 ]
  distance:    0.1293499
  band:
  - # 1
    frequency:    1.0678429088
  - # 2
    frequency:    1.3244439435
  - # 3
    frequency:    1.9039855352
  - # 4
    frequency:    2.2039750098
  - # 5
    frequency:    2.6470981554
  - # 6
    frequency:    2.8653466035

- q-position: [    0.3800000,    0.1900000,    0.5700000 ]
  distance:    0.1310745
  band:
  - # 1
    frequency:    1.0679864843
  - # 2
    frequency:    1.3087638470
  - # 3
    frequency:    1.9015505873
  - # 4
    frequency:    2.2080670686
  - # 5
    frequency:    2.6314295018
  - # 6
    frequency:    2.8660360481

- q-position: [    0.3850000,    0.1925000,    0.5775000 ]
  distance:    0.1327992
  band:
  - # 1
    frequency:    1.0674930859
  - # 2
    frequency:    1.2920781002
  - # 3
    frequency:    1.8998460079
  - # 4
    frequency:    2.2121699959
  - # 5
    frequency:    2.6146597384
  - # 6
    frequency:    2.8667513980

- q-position: [    0.3900000,    0.1950000,    0.5850000 ]
  distance:    0.1345239
  band:
  - # 1
    frequency:    1.0663902724
  - # 2
    frequency:    1.2746101193
  - # 3
    frequency:    1.8987810478
  - # 4
    frequency:    2.2162460347
  - # 5
    frequency:    2.5969006396
  - # 6
    frequency:    2.8674231638

- q-position: [    0.3950000,    0.1975000,    0.5925000 ]
  distance:    0.1362485
  band:
  - # 1
    frequency:    1.0647116076
  - # 2
    frequency:    1.2565747648
  - # 3
    frequency:    1.8982728456
  - # 4
    frequency:    2.2202589166
  - # 5
    frequency:    2.5782671340
  - # 6
    frequency:    2.8679948479

- q-position: [    0.4000000,    0.2000000,    0.6000000 ]
  distance:    0.1379732
  band:
  - # 1
    frequency:    1.0624964301
  - # 2
    frequency:    1.2381748421
  - # 3
    frequency:    1.8982496712
  - # 4
    frequency:    2.2241742772
  - # 5
    frequency:    2.5588781547
  - # 6
    frequency:    2.8684219449

- q-position: [    0.4050000,    0.2025000,    0.6075000 ]
  distance:    0.1396979
  band:
  - # 1
    frequency:    1.0597895644
  - # 2
    frequency:    1.2195992196
  - # 3
    frequency:    1.8986523930
  - # 4
    frequency:    2.2279600051
  - # 5
    frequency:    2.5388574512
  - # 6
    frequency:    2.8686709081

- q-position: [    0.4100000,    0.2050000,    0.6150000 ]
  distance:    0.1414225
  band:
  - # 1
    frequency:    1.0566409682
  - # 2
    frequency:    1.2010221552
  - # 3
    frequency:    1.8994345447
  - # 4
    frequency:    2.2315865223
  - # 5
    frequency:    2.5183342719
  - # 6
    frequency:    2.8687181881

- q-position: [    0.4150000,    0.2075000,    0.6225000 ]
  distance:    0.1431472
  band:
  - # 1
    frequency:    1.0531053137
  - # 2
    frequency:    1.1826034528
  - # 3
    frequency:    1.9005613409
  - # 4
    frequency:    2.2350269984
  - # 5
    frequency:    2.4974439023
  - # 6
    frequency:    2.8685493772

- q-position: [    0.4200000,    0.2100000,    0.6300000 ]
  distance:    0.1448719
  band:
  - # 1
    frequency:    1.0492414968
  - # 2
    frequency:    1.1644891303
  - # 3
    frequency:    1.9020079271
  - # 4
    frequency:    2.2382575008
  - # 5
    frequency:    2.4763280826
  - # 6
    frequency:    2.8681584560

- q-position: [    0.4250000,    0.2125000,    0.6375000 ]
  distance:    0.1465965
  band:
  - # 1
    frequency:    1.0451120736
  - # 2
    frequency:    1.1468123624
  - # 3
    frequency:    1.9037570658
  - # 4
    frequency:    2.2412570842
  - # 5
    frequency:    2.4551353522
  - # 6
    frequency:    2.8675471244

- q-position: [    0.4300000,    0.2150000,    0.6450000 ]
  distance:    0.1483212
  band:
  - # 1
    frequency:    1.0407826188
  - # 2
    frequency:    1.1296945309
  - # 3
    frequency:    1.9057963920
  - # 4
    frequency:    2.2440078228
  - # 5
    frequency:    2.4340213738
  - # 6
    frequency:    2.8667241946

- q-position: [    0.4350000,    0.2175000,    0.6525000 ]
  distance:    0.1500459
  band:
  - # 1
    frequency:    1.0363210086
  - # 2
    frequency:    1.1132462728
  - # 3
    frequency:    1.9081153179
  - # 4
    frequency:    2.2464947923
  - # 5
    frequency:    2.4131492945
  - # 6
    frequency:    2.8657050257

- q-position: [    0.4400000,    0.2200000,    0.6600000 ]
  distance:    0.1517705
  band:
  - # 1
    frequency:    1.0317966273
  - # 2
    frequency:    1.0975684609
  - # 3
    frequency:    1.9107016320
  - # 4
    frequency:    2.2487060045
  - # 5
    frequency:    2.3926901915
  - # 6
    frequency:    2.8645109821

- q-position: [    0.4450000,    0.2225000,    0.6675000 ]
  distance:    0.1534952
  band:
  - # 1
    frequency:    1.0272795024
  - # 2
    frequency:    1.0827530786
  - # 3
    frequency:    1.9135378299
  - # 4
    frequency:    2.2506323015
  - # 5
    frequency:    2.3728236350
  - # 6
    frequency:    2.8631689020

- q-position: [    0.4500000,    0.2250000,    0.6750000 ]
  distance:    0.1552199
  band:
  - # 1
    frequency:    1.0228393775
  - # 2
    frequency:    1.0688839759
  - # 3
    frequency:    1.9165972426
  - # 4
    frequency:    2.2522672151
  - # 5
    frequency:    2.3537383622
  - # 6
    frequency:    2.8617105664

- q-position: [    0.4550000,    0.2275000,    0.6825000 ]
  distance:    0.1569445
  band:
  - # 1
    frequency:    1.0185447318
  - # 2
    frequency:    1.0560375013
  - # 3