14.400
  29.10128   0.00000   0.00000   0.00000  29.10128   0.00000  -0.00000   0.00000  29.10128
   5.82589   0.00000   0.00000   0.00000   5.82589   0.00000   0.00000   0.00000   5.82589
  -5.82474   0.00000   0.00000   0.00000  -5.82474   0.00000   0.00000   0.00000  -5.82474
