128  
2    

1    
  0.0000000000000000   0.0070710678118655   0.0070710678118655
  -0.0000000000   -0.0178529200   -0.0178529200
  -0.0000000000    0.0027775900    0.0027775900
  -0.0000000000    0.0005837100    0.0005837100
  -0.0000000000    0.0027511800    0.0027511800
   0.0027183700   -0.0001975100    0.0000505600
   0.0001703600    0.0001324100    0.0003034600
  -0.0001704600    0.0003016900    0.0001330800
  -0.0027063100    0.0000533800   -0.0001958400
   0.0003848900   -0.0000558100    0.0001987700
  -0.0000009600   -0.0000377800   -0.0000375000
  -0.0003848900    0.0001987700   -0.0000558100
   0.0000009600   -0.0000375000   -0.0000377800
   0.0027063100   -0.0001958400    0.0000533800
  -0.0027183700    0.0000505600   -0.0001975100
  -0.0001703600    0.0003034600    0.0001324100
   0.0001704600    0.0001330800    0.0003016900
   0.0027183700    0.0000505600   -0.0001975100
   0.0001703600    0.0003034600    0.0001324100
  -0.0001704600    0.0001330800    0.0003016900
  -0.0027063100   -0.0001958400    0.0000533800
   0.0002352400    0.0000686500    0.0000686500
   0.0000000100    0.0000891200    0.0000891200
  -0.0002331600    0.0000690800    0.0000690800
  -0.0000094100    0.0002937900    0.0002937900
   0.0000634000   -0.0001016800    0.0000675600
  -0.0000644300    0.0000692000   -0.0001013900
  -0.0003718300    0.0002775400   -0.0000468600
   0.0003745600   -0.0000470200    0.0002756400
  -0.0000000000   -0.0026577800   -0.0026631000
  -0.0000000000    0.0041865900    0.0002972700
  -0.0000000000    0.0006510300    0.0006486000
  -0.0000000000    0.0002903700    0.0041940700
   0.0003848900    0.0001987700   -0.0000558100
  -0.0000009600   -0.0000375000   -0.0000377800
  -0.0003848900   -0.0000558100    0.0001987700
   0.0000009600   -0.0000377800   -0.0000375000
   0.0000634000    0.0000675600   -0.0001016800
  -0.0000644300   -0.0001013900    0.0000692000
  -0.0003718300   -0.0000468600    0.0002775400
   0.0003745600    0.0002756400   -0.0000470200
  -0.0000000000   -0.0001861800   -0.0001861800
  -0.0000000000   -0.0000945400   -0.0000945400
  -0.0000000000    0.0010765400    0.0010765400
  -0.0000000000   -0.0000986100   -0.0000986100
   0.0000644300    0.0000692000   -0.0001013900
   0.0003718300    0.0002775400   -0.0000468600
  -0.0003745600   -0.0000470200    0.0002756400
  -0.0000634000   -0.0001016800    0.0000675600
   0.0027063100    0.0000533800   -0.0001958400
  -0.0027183700   -0.0001975100    0.0000505600
  -0.0001703600    0.0001324100    0.0003034600
   0.0001704600    0.0003016900    0.0001330800
  -0.0000000000   -0.0026631000   -0.0026577800
  -0.0000000000    0.0002972700    0.0041865900
  -0.0000000000    0.0006486000    0.0006510300
  -0.0000000000    0.0041940700    0.0002903700
   0.0000644300   -0.0001013900    0.0000692000
   0.0003718300   -0.0000468600    0.0002775400
  -0.0003745600    0.0002756400   -0.0000470200
  -0.0000634000    0.0000675600   -0.0001016800
   0.0002331600    0.0000690800    0.0000690800
   0.0000094100    0.0002937900    0.0002937900
  -0.0002352400    0.0000686500    0.0000686500
  -0.0000000100    0.0000891200    0.0000891200
  -0.0004020400   -0.0002101300   -0.0002101300
   0.0000000000   -0.0001781200   -0.0001781200
   0.0003987400   -0.0002083500   -0.0002083500
  -0.0000132900    0.0007016900    0.0007016900
  -0.0000836900   -0.0000182800   -0.0000942800
   0.0000838100   -0.0000943700   -0.0000185500
   0.0006646700   -0.0001050300    0.0000143600
  -0.0006690200    0.0000142700   -0.0001035100
   0.0000013300    0.0001904900    0.0001917100
   0.0004455600   -0.0003350000    0.0000143000
  -0.0000006800   -0.0001526800   -0.0001517400
  -0.0004474800    0.0000144200   -0.0003368300
  -0.0000000000    0.0052395600    0.0006966200
  -0.0000000000   -0.0010045700   -0.0005503900
  -0.0000000000   -0.0005511600   -0.0010010500
  -0.0000000000    0.0007062100    0.0049377300
  -0.0000836900   -0.0000942800   -0.0000182800
   0.0000838100   -0.0000185500   -0.0000943700
   0.0006646700    0.0000143600   -0.0001050300
  -0.0006690200   -0.0001035100    0.0000142700
   0.0000000600   -0.0000105600   -0.0000105600
   0.0000927300   -0.0000596300   -0.0000596300
   0.0000027600   -0.0003127400   -0.0003127400
  -0.0000938300   -0.0000582200   -0.0000582200
  -0.0000000000    0.0003283500    0.0003413500
  -0.0000000000   -0.0018034600   -0.0003131600
  -0.0000000000   -0.0003122900   -0.0018057800
  -0.0000000000    0.0003431200    0.0003335700
  -0.0004455600   -0.0003350000    0.0000143000
   0.0000006800   -0.0001526800   -0.0001517400
   0.0004474800    0.0000144200   -0.0003368300
  -0.0000013300    0.0001904900    0.0001917100
   0.0000013300    0.0001917100    0.0001904900
   0.0004455600    0.0000143000   -0.0003350000
  -0.0000006800   -0.0001517400   -0.0001526800
  -0.0004474800   -0.0003368300    0.0000144200
  -0.0000000000    0.0003413500    0.0003283500
  -0.0000000000   -0.0003131600   -0.0018034600
  -0.0000000000   -0.0018057800   -0.0003122900
  -0.0000000000    0.0003335700    0.0003431200
  -0.0000927300   -0.0000596300   -0.0000596300
  -0.0000027600   -0.0003127400   -0.0003127400
   0.0000938300   -0.0000582200   -0.0000582200
  -0.0000000600   -0.0000105600   -0.0000105600
  -0.0006646700   -0.0001050300    0.0000143600
   0.0006690200    0.0000142700   -0.0001035100
   0.0000836900   -0.0000182800   -0.0000942800
  -0.0000838100   -0.0000943700   -0.0000185500
  -0.0000000000    0.0006966200    0.0052395600
  -0.0000000000   -0.0005503900   -0.0010045700
  -0.0000000000   -0.0010010500   -0.0005511600
  -0.0000000000    0.0049377300    0.0007062100
  -0.0004455600    0.0000143000   -0.0003350000
   0.0000006800   -0.0001517400   -0.0001526800
   0.0004474800   -0.0003368300    0.0000144200
  -0.0000013300    0.0001917100    0.0001904900
  -0.0006646700    0.0000143600   -0.0001050300
   0.0006690200   -0.0001035100    0.0000142700
   0.0000836900   -0.0000942800   -0.0000182800
  -0.0000838100   -0.0000185500   -0.0000943700
   0.0000132900    0.0007016900    0.0007016900
   0.0004020400   -0.0002101300   -0.0002101300
  -0.0000000000   -0.0001781200   -0.0001781200
  -0.0003987400   -0.0002083500   -0.0002083500

65   
  0.0000000000000000   0.0070710678118655   0.0070710678118655
  -0.0004006600   -0.0002101400   -0.0002101400
   0.0000028400    0.0007018200    0.0007018200
   0.0004026900   -0.0002085600   -0.0002085600
   0.0000006200   -0.0001785200   -0.0001785200
   0.0000000000    0.0049412000    0.0007154900
   0.0000000000    0.0006874300    0.0052373900
   0.0000000000   -0.0007713400   -0.0007840400
   0.0000000000   -0.0007799200   -0.0007706500
   0.0000007600    0.0001912400    0.0001933800
  -0.0006672800    0.0000139700   -0.0003349800
  -0.0000010400   -0.0001524100   -0.0001533900
   0.0006659900   -0.0003363300    0.0000141900
  -0.0000837000   -0.0000182200   -0.0000945700
  -0.0004461700    0.0000143300   -0.0001060700
   0.0004464300   -0.0001026600    0.0000138300
   0.0000839700   -0.0000948100   -0.0000177400
   0.0000000000    0.0007154900    0.0049412000
   0.0000000000    0.0052373900    0.0006874300
   0.0000000000   -0.0007840400   -0.0007713400
   0.0000000000   -0.0007706500   -0.0007799200
  -0.0000028400    0.0007018200    0.0007018200
  -0.0004026900   -0.0002085600   -0.0002085600
  -0.0000006200   -0.0001785200   -0.0001785200
   0.0004006600   -0.0002101400   -0.0002101400
  -0.0004464300    0.0000138300   -0.0001026600
  -0.0000839700   -0.0000177400   -0.0000948100
   0.0000837000   -0.0000945700   -0.0000182200
   0.0004461700   -0.0001060700    0.0000143300
  -0.0006659900    0.0000141900   -0.0003363300
  -0.0000007600    0.0001933800    0.0001912400
   0.0006672800   -0.0003349800    0.0000139700
   0.0000010400   -0.0001533900   -0.0001524100
   0.0000007600    0.0001933800    0.0001912400
  -0.0006672800   -0.0003349800    0.0000139700
  -0.0000010400   -0.0001533900   -0.0001524100
   0.0006659900    0.0000141900   -0.0003363300
  -0.0004464300   -0.0001026600    0.0000138300
  -0.0000839700   -0.0000948100   -0.0000177400
   0.0000837000   -0.0000182200   -0.0000945700
   0.0004461700    0.0000143300   -0.0001060700
  -0.0000924200   -0.0000599900   -0.0000599900
   0.0000000700   -0.0000108600   -0.0000108600
   0.0000933300   -0.0000600700   -0.0000600700
   0.0000048700   -0.0003131800   -0.0003131800
   0.0000000000    0.0005611000    0.0001094000
   0.0000000000    0.0001118900    0.0005634100
   0.0000000000   -0.0018087500   -0.0003123700
   0.0000000000   -0.0003139800   -0.0018010800
  -0.0000837000   -0.0000945700   -0.0000182200
  -0.0004461700   -0.0001060700    0.0000143300
   0.0004464300    0.0000138300   -0.0001026600
   0.0000839700   -0.0000177400   -0.0000948100
  -0.0006659900   -0.0003363300    0.0000141900
  -0.0000007600    0.0001912400    0.0001933800
   0.0006672800    0.0000139700   -0.0003349800
   0.0000010400   -0.0001524100   -0.0001533900
   0.0000000000    0.0001094000    0.0005611000
   0.0000000000    0.0005634100    0.0001118900
   0.0000000000   -0.0003123700   -0.0018087500
   0.0000000000   -0.0018010800   -0.0003139800
  -0.0000000700   -0.0000108600   -0.0000108600
  -0.0000933300   -0.0000600700   -0.0000600700
  -0.0000048700   -0.0003131800   -0.0003131800
   0.0000924200   -0.0000599900   -0.0000599900
   0.0000000000   -0.0232493600   -0.0232493600
  -0.0000000000    0.0012528900    0.0012528900
  -0.0000000000    0.0003115300    0.0003115300
  -0.0000000000    0.0012263800    0.0012263800
   0.0009487100   -0.0000472700    0.0002934100
   0.0001265300    0.0001327700    0.0002175600
  -0.0001254200    0.0002172100    0.0001331600
  -0.0009445800    0.0002914900   -0.0000464900
   0.0002384700    0.0000139700    0.0000726900
   0.0000003300    0.0000066200    0.0000073800
  -0.0002384700    0.0000726900    0.0000139700
  -0.0000003300    0.0000073800    0.0000066200
   0.0009445800   -0.0000464900    0.0002914900
  -0.0009487100    0.0002934100   -0.0000472700
  -0.0001265300    0.0002175600    0.0001327700
   0.0001254200    0.0001331600    0.0002172100
   0.0009487100    0.0002934100   -0.0000472700
   0.0001265300    0.0002175600    0.0001327700
  -0.0001254200    0.0001331600    0.0002172100
  -0.0009445800   -0.0000464900    0.0002914900
   0.0001645400    0.0000947300    0.0000947300
   0.0000001200    0.0000878100    0.0000878100
  -0.0001637800    0.0000946000    0.0000946000
  -0.0000142400    0.0002410400    0.0002410400
   0.0000382300   -0.0000314300    0.0000537100
  -0.0000383800    0.0000527300   -0.0000311700
  -0.0003271000    0.0005136700    0.0002125600
   0.0003260000    0.0002137000    0.0005127200
   0.0000000000   -0.0006562700   -0.0006521600
   0.0000000000    0.0043828500    0.0002431900
   0.0000000000    0.0008413800    0.0008381300
   0.0000000000    0.0002389000    0.0043673900
   0.0002384700    0.0000726900    0.0000139700
   0.0000003300    0.0000073800    0.0000066200
  -0.0002384700    0.0000139700    0.0000726900
  -0.0000003300    0.0000066200    0.0000073800
   0.0000382300    0.0000537100   -0.0000314300
  -0.0000383800   -0.0000311700    0.0000527300
  -0.0003271000    0.0002125600    0.0005136700
   0.0003260000    0.0005127200    0.0002137000
   0.0000000000   -0.0001657600   -0.0001657600
  -0.0000000000    0.0001857900    0.0001857900
  -0.0000000000    0.0010675800    0.0010675800
   0.0000000000    0.0001875200    0.0001875200
   0.0000383800    0.0000527300   -0.0000311700
   0.0003271000    0.0005136700    0.0002125600
  -0.0003260000    0.0002137000    0.0005127200
  -0.0000382300   -0.0000314300    0.0000537100
   0.0009445800    0.0002914900   -0.0000464900
  -0.0009487100   -0.0000472700    0.0002934100
  -0.0001265300    0.0001327700    0.0002175600
   0.0001254200    0.0002172100    0.0001331600
   0.0000000000   -0.0006521600   -0.0006562700
   0.0000000000    0.0002431900    0.0043828500
   0.0000000000    0.0008381300    0.0008413800
   0.0000000000    0.0043673900    0.0002389000
   0.0000383800   -0.0000311700    0.0000527300
   0.0003271000    0.0002125600    0.0005136700
  -0.0003260000    0.0005127200    0.0002137000
  -0.0000382300    0.0000537100   -0.0000314300
   0.0001637800    0.0000946000    0.0000946000
   0.0000142400    0.0002410400    0.0002410400
  -0.0001645400    0.0000947300    0.0000947300
  -0.0000001200    0.0000878100    0.0000878100
