mesh: [    48,    48,    48 ]
nqpoint: 2769   
natom:   2      
phonon:
- q-position: [    0.0000000,    0.0000000,    0.0000000 ]
  weight: 1    
  band:
  - # 1
    frequency:    -0.0011349251
  - # 2
    frequency:    -0.0011349251
  - # 3
    frequency:    -0.0011349251
  - # 4
    frequency:     1.1397098280
  - # 5
    frequency:     1.1397098280
  - # 6
    frequency:     1.1397098280

- q-position: [    0.0208333,    0.0000000,    0.0000000 ]
  weight: 8    
  band:
  - # 1
    frequency:     0.1224767517
  - # 2
    frequency:     0.1224767517
  - # 3
    frequency:     0.1693369920
  - # 4
    frequency:     1.1658293139
  - # 5
    frequency:     1.1658293139
  - # 6
    frequency:     3.3011669760

- q-position: [    0.0416667,    0.0000000,    0.0000000 ]
  weight: 8    
  band:
  - # 1
    frequency:     0.2403252063
  - # 2
    frequency:     0.2403252063
  - # 3
    frequency:     0.3368777991
  - # 4
    frequency:     1.2405206678
  - # 5
    frequency:     1.2405206678
  - # 6
    frequency:     3.3060297978

- q-position: [    0.0625000,    0.0000000,    0.0000000 ]
  weight: 8    
  band:
  - # 1
    frequency:     0.3511904697
  - # 2
    frequency:     0.3511904697
  - # 3
    frequency:     0.5008942321
  - # 4
    frequency:     1.3541584896
  - # 5
    frequency:     1.3541584896
  - # 6
    frequency:     3.3142319826

- q-position: [    0.0833333,    0.0000000,    0.0000000 ]
  weight: 8    
  band:
  - # 1
    frequency:     0.4551603118
  - # 2
    frequency:     0.4551603118
  - # 3
    frequency:     0.6598216573
  - # 4
    frequency:     1.4944539915
  - # 5
    frequency:     1.4944539915
  - # 6
    frequency:     3.3258557842

- q-position: [    0.1041667,    0.0000000,    0.0000000 ]
  weight: 8    
  band:
  - # 1
    frequency:     0.5534095221
  - # 2
    frequency:     0.5534095221
  - # 3
    frequency:     0.8123239857
  - # 4
    frequency:     1.6496359937
  - # 5
    frequency:     1.6496359937
  - # 6
    frequency:     3.3409006438

- q-position: [    0.1250000,    0.0000000,    0.0000000 ]
  weight: 8    
  band:
  - # 1
    frequency:     0.6470848600
  - # 2
    frequency:     0.6470848600
  - # 3
    frequency:     0.9573596158
  - # 4
    frequency:     1.8100705387
  - # 5
    frequency:     1.8100705387
  - # 6
    frequency:     3.3591941115

- q-position: [    0.1458333,    0.0000000,    0.0000000 ]
  weight: 8    
  band:
  - # 1
    frequency:     0.7369363008
  - # 2
    frequency:     0.7369363008
  - # 3
    frequency:     1.0942362397
  - # 4
    frequency:     1.9684842725
  - # 5
    frequency:     1.9684842725
  - # 6
    frequency:     3.3803104618

- q-position: [    0.1666667,    0.0000000,    0.0000000 ]
  weight: 8    
  band:
  - # 1
    frequency:     0.8233626693
  - # 2
    frequency:     0.8233626693
  - # 3
    frequency:     1.2226514248
  - # 4
    frequency:     2.1195905197
  - # 5
    frequency:     2.1195905197
  - # 6
    frequency:     3.4035134883

- q-position: [    0.1875000,    0.0000000,    0.0000000 ]
  weight: 8    
  band:
  - # 1
    frequency:     0.9065500715
  - # 2
    frequency:     0.9065500715
  - # 3
    frequency:     1.3427155196
  - # 4
    frequency:     2.2596381198
  - # 5
    frequency:     2.2596381198
  - # 6
    frequency:     3.4277355046

- q-position: [    0.2083333,    0.0000000,    0.0000000 ]
  weight: 8    
  band:
  - # 1
    frequency:     0.9865806155
  - # 2
    frequency:     0.9865806155
  - # 3
    frequency:     1.4549534194
  - # 4
    frequency:     2.3860560082
  - # 5
    frequency:     2.3860560082
  - # 6
    frequency:     3.4515977456

- q-position: [    0.2291667,    0.0000000,    0.0000000 ]
  weight: 8    
  band:
  - # 1
    frequency:     1.0634930302
  - # 2
    frequency:     1.0634930302
  - # 3
    frequency:     1.5602815152
  - # 4
    frequency:     2.4972067683
  - # 5
    frequency:     2.4972067683
  - # 6
    frequency:     3.4734700806

- q-position: [    0.2500000,    0.0000000,    0.0000000 ]
  weight: 8    
  band:
  - # 1
    frequency:     1.1373056312
  - # 2
    frequency:     1.1373056312
  - # 3
    frequency:     1.6599558124
  - # 4
    frequency:     2.5922205211
  - # 5
    frequency:     2.5922205211
  - # 6
    frequency:     3.4915622286

- q-position: [    0.2708333,    0.0000000,    0.0000000 ]
  weight: 8    
  band:
  - # 1
    frequency:     1.2080140064
  - # 2
    frequency:     1.2080140064
  - # 3
    frequency:     1.7554874481
  - # 4
    frequency:     2.6708800934
  - # 5
    frequency:     2.6708800934
  - # 6
    frequency:     3.5040357200

- q-position: [    0.2916667,    0.0000000,    0.0000000 ]
  weight: 8    
  band:
  - # 1
    frequency:     1.2755721936
  - # 2
    frequency:     1.2755721936
  - # 3
    frequency:     1.8485236802
  - # 4
    frequency:     2.7335367138
  - # 5
    frequency:     2.7335367138
  - # 6
    frequency:     3.5091257680

- q-position: [    0.3125000,    0.0000000,    0.0000000 ]
  weight: 8    
  band:
  - # 1
    frequency:     1.3398629909
  - # 2
    frequency:     1.3398629909
  - # 3
    frequency:     1.9406964483
  - # 4
    frequency:     2.7810429704
  - # 5
    frequency:     2.7810429704
  - # 6
    frequency:     3.5052643132

- q-position: [    0.3333333,    0.0000000,    0.0000000 ]
  weight: 8    
  band:
  - # 1
    frequency:     1.4006614052
  - # 2
    frequency:     1.4006614052
  - # 3
    frequency:     2.0334459760
  - # 4
    frequency:     2.8146946707
  - # 5
    frequency:     2.8146946707
  - # 6
    frequency:     3.4911991241

- q-position: [    0.3541667,    0.0000000,    0.0000000 ]
  weight: 8    
  band:
  - # 1
    frequency:     1.4575951497
  - # 2
    frequency:     1.4575951497
  - # 3
    frequency:     2.1278307260
  - # 4
    frequency:     2.8361756635
  - # 5
    frequency:     2.8361756635
  - # 6
    frequency:     3.4661091097

- q-position: [    0.3750000,    0.0000000,    0.0000000 ]
  weight: 8    
  band:
  - # 1
    frequency:     1.5101076342
  - # 2
    frequency:     1.5101076342
  - # 3
    frequency:     2.2243322129
  - # 4
    frequency:     2.8474998050
  - # 5
    frequency:     2.8474998050
  - # 6
    frequency:     3.4297248243

- q-position: [    0.3958333,    0.0000000,    0.0000000 ]
  weight: 8    
  band:
  - # 1
    frequency:     1.5574322834
  - # 2
    frequency:     1.5574322834
  - # 3
    frequency:     2.3226453987
  - # 4
    frequency:     2.8509421196
  - # 5
    frequency:     2.8509421196
  - # 6
    frequency:     3.3824814278

- q-position: [    0.4166667,    0.0000000,    0.0000000 ]
  weight: 8    
  band:
  - # 1
    frequency:     1.5985920568
  - # 2
    frequency:     1.5985920568
  - # 3
    frequency:     2.4213953572
  - # 4
    frequency:     2.8489471794
  - # 5
    frequency:     2.8489471794
  - # 6
    frequency:     3.3257760186

- q-position: [    0.4375000,    0.0000000,    0.0000000 ]
  weight: 8    
  band:
  - # 1
    frequency:     1.6324428719
  - # 2
    frequency:     1.6324428719
  - # 3
    frequency:     2.5175919769
  - # 4
    frequency:     2.8439987275
  - # 5
    frequency:     2.8439987275
  - # 6
    frequency:     3.2625209666

- q-position: [    0.4583333,    0.0000000,    0.0000000 ]
  weight: 8    
  band:
  - # 1
    frequency:     1.6577790410
  - # 2
    frequency:     1.6577790410
  - # 3
    frequency:     2.6053128120
  - # 4
    frequency:     2.8384357843
  - # 5
    frequency:     2.8384357843
  - # 6
    frequency:     3.1984969792

- q-position: [    0.4791667,    0.0000000,    0.0000000 ]
  weight: 8    
  band:
  - # 1
    frequency:     1.6735044696
  - # 2
    frequency:     1.6735044696
  - # 3
    frequency:     2.6726865880
  - # 4
    frequency:     2.8342151681
  - # 5
    frequency:     2.8342151681
  - # 6
    frequency:     3.1454204837

- q-position: [    0.5000000,    0.0000000,    0.0000000 ]
  weight: 4    
  band:
  - # 1
    frequency:     1.6788406510
  - # 2
    frequency:     1.6788406510
  - # 3
    frequency:     2.6995844397
  - # 4
    frequency:     2.8326529900
  - # 5
    frequency:     2.8326529900
  - # 6
    frequency:     3.1233029101

- q-position: [    0.0208333,    0.0208333,    0.0000000 ]
  weight: 6    
  band:
  - # 1
    frequency:     0.1283285856
  - # 2
    frequency:     0.1283285856
  - # 3
    frequency:     0.2123317460
  - # 4
    frequency:     1.1698379526
  - # 5
    frequency:     1.1698379526
  - # 6
    frequency:     3.3046470364

- q-position: [    0.0416667,    0.0208333,    0.0000000 ]
  weight: 24   
  band:
  - # 1
    frequency:     0.2151834575
  - # 2
    frequency:     0.2212493450
  - # 3
    frequency:     0.3393198303
  - # 4
    frequency:     1.2232453694
  - # 5
    frequency:     1.2280197420
  - # 6
    frequency:     3.3094414464

- q-position: [    0.0625000,    0.0208333,    0.0000000 ]
  weight: 24   
  band:
  - # 1
    frequency:     0.3171501124
  - # 2
    frequency:     0.3293752044
  - # 3
    frequency:     0.4854069423
  - # 4
    frequency:     1.3187054752
  - # 5
    frequency:     1.3313974505
  - # 6
    frequency:     3.3160426320

- q-position: [    0.0833333,    0.0208333,    0.0000000 ]
  weight: 24   
  band:
  - # 1
    frequency:     0.4175631043
  - # 2
    frequency:     0.4339317065
  - # 3
    frequency:     0.6356486673
  - # 4
    frequency:     1.4450886398
  - # 5
    frequency:     1.4652487593
  - # 6
    frequency:     3.3256436011

- q-position: [    0.1041667,    0.0208333,    0.0000000 ]
  weight: 24   
  band:
  - # 1
    frequency:     0.5135505878
  - # 2
    frequency:     0.5335735963
  - # 3
    frequency:     0.7840155285
  - # 4
    frequency:     1.5906500759
  - # 5
    frequency:     1.6171794725
  - # 6
    frequency:     3.3384715955

- q-position: [    0.1250000,    0.0208333,    0.0000000 ]
  weight: 24   
  band:
  - # 1
    frequency:     0.6051056773
  - # 2
    frequency:     0.6291033967
  - # 3
    frequency:     0.9274367237
  - # 4
    frequency:     1.7451589333
  - # 5
    frequency:     1.7769399623
  - # 6
    frequency:     3.3544882009

- q-position: [    0.1458333,    0.0208333,    0.0000000 ]
  weight: 24   
  band:
  - # 1
    frequency:     0.6927145243
  - # 2
    frequency:     0.7212174073
  - # 3
    frequency:     1.0641954010
  - # 4
    frequency:     1.9006033182
  - # 5
    frequency:     1.9366621466
  - # 6
    frequency:     3.3734125049

- q-position: [    0.1666667,    0.0208333,    0.0000000 ]
  weight: 24   
  band:
  - # 1
    frequency:     0.7767951566
  - # 2
    frequency:     0.8102522677
  - # 3
    frequency:     1.1933856212
  - # 4
    frequency:     2.0510444243
  - # 5
    frequency:     2.0905520546
  - # 6
    frequency:     3.3946698900

- q-position: [    0.1875000,    0.0208333,    0.0000000 ]
  weight: 24   
  band:
  - # 1
    frequency:     0.8576362973
  - # 2
    frequency:     0.8962908741
  - # 3
    frequency:     1.3147076370
  - # 4
    frequency:     2.1922163938
  - # 5
    frequency:     2.2344379888
  - # 6
    frequency:     3.4173591263

- q-position: [    0.2083333,    0.0208333,    0.0000000 ]
  weight: 24   
  band:
  - # 1
    frequency:     0.9354450311
  - # 2
    frequency:     0.9792852138
  - # 3
    frequency:     1.4283743134
  - # 4
    frequency:     2.3211528709
  - # 5
    frequency:     2.3653928843
  - # 6
    frequency:     3.4402569796

- q-position: [    0.2291667,    0.0208333,    0.0000000 ]
  weight: 24   
  band:
  - # 1
    frequency:     1.0103909242
  - # 2
    frequency:     1.0591344896
  - # 3
    frequency:     1.5350473341
  - # 4
    frequency:     2.4359084977
  - # 5
    frequency:     2.4814681262
  - # 6
    frequency:     3.4618627580

- q-position: [    0.2500000,    0.0208333,    0.0000000 ]
  weight: 24   
  band:
  - # 1
    frequency:     1.0826249615
  - # 2
    frequency:     1.1357219646
  - # 3
    frequency:     1.6357699917
  - # 4
    frequency:     2.5353647686
  - # 5
    frequency:     2.5815158551
  - # 6
    frequency:     3.4804771223

- q-position: [    0.2708333,    0.0208333,    0.0000000 ]
  weight: 24   
  band:
  - # 1
    frequency:     1.1522757024
  - # 2
    frequency:     1.2089226235
  - # 3
    frequency:     1.7318810280
  - # 4
    frequency:     2.6190942788
  - # 5
    frequency:     2.6650699484
  - # 6
    frequency:     3.4943053380

- q-position: [    0.2916667,    0.0208333,    0.0000000 ]
  weight: 24   
  band:
  - # 1
    frequency:     1.2194288290
  - # 2
    frequency:     1.2785905776
  - # 3
    frequency:     1.8249021259
  - # 4
    frequency:     2.6872614059
  - # 5
    frequency:     2.7322626717
  - # 6
    frequency:     3.5015743504

- q-position: [    0.3125000,    0.0208333,    0.0000000 ]
  weight: 24   
  band:
  - # 1
    frequency:     1.2840953724
  - # 2
    frequency:     1.3445318314
  - # 3
    frequency:     1.9163973385
  - # 4
    frequency:     2.7405444219
  - # 5
    frequency:     2.7837615739
  - # 6
    frequency:     3.5006546857

- q-position: [    0.3333333,    0.0208333,    0.0000000 ]
  weight: 24   
  band:
  - # 1
    frequency:     1.3461727598
  - # 2
    frequency:     1.4064669497
  - # 3
    frequency:     2.0078077880
  - # 4
    frequency:     2.7800695027
  - # 5
    frequency:     2.8207169247
  - # 6
    frequency:     3.4901811689

- q-position: [    0.3541667,    0.0208333,    0.0000000 ]
  weight: 24   
  band:
  - # 1
    frequency:     1.4054024828
  - # 2
    frequency:     1.4639891873
  - # 3
    frequency:     2.1002683111
  - # 4
    frequency:     2.8073503927
  - # 5
    frequency:     2.8447138467
  - # 6
    frequency:     3.4691705384

- q-position: [    0.3750000,    0.0208333,    0.0000000 ]
  weight: 24   
  band:
  - # 1
    frequency:     1.4613290149
  - # 2
    frequency:     1.5165258431
  - # 3
    frequency:     2.1944111371
  - # 4
    frequency:     2.8242286567
  - # 5
    frequency:     2.8577255134
  - # 6
    frequency:     3.4371405928

- q-position: [    0.3958333,    0.0208333,    0.0000000 ]
  weight: 24   
  band:
  - # 1
    frequency:     1.5132669234
  - # 2
    frequency:     1.5633131198
  - # 3
    frequency:     2.2901487026
  - # 4
    frequency:     2.8328085237
  - # 5
    frequency:     2.8620649926
  - # 6
    frequency:     3.3942487941

- q-position: [    0.4166667,    0.0208333,    0.0000000 ]
  weight: 24   
  band:
  - # 1
    frequency:     1.5602871028
  - # 2
    frequency:     1.6033975328
  - # 3
    frequency:     2.3863889218
  - # 4
    frequency:     2.8353773437
  - # 5
    frequency:     2.8603356960
  - # 6
    frequency:     3.3414996471

- q-position: [    0.4375000,    0.0208333,    0.0000000 ]
  weight: 24   
  band:
  - # 1
    frequency:     1.6012379614
  - # 2
    frequency:     1.6356797872
  - # 3
    frequency:     2.4805371417
  - # 4
    frequency:     2.8342985094
  - # 5
    frequency:     2.8553874700
  - # 6
    frequency:     3.2811522250

- q-position: [    0.4583333,    0.0208333,    0.0000000 ]
  weight: 24   
  band:
  - # 1
    frequency:     1.6348200821
  - # 2
    frequency:     1.6590168508
  - # 3
    frequency:     2.5674225360
  - # 4
    frequency:     2.8318614832
  - # 5
    frequency:     2.8502715179
  - # 6
    frequency:     3.2176808961

- q-position: [    0.4791667,    0.0208333,    0.0000000 ]
  weight: 24   
  band:
  - # 1
    frequency:     1.6597267177
  - # 2
    frequency:     1.6723867918
  - # 3
    frequency:     2.6372015395
  - # 4
    frequency:     2.8300799084
  - # 5
    frequency:     2.8478117912
  - # 6
    frequency:     3.1601070022

- q-position: [    0.5000000,    0.0208333,    0.0000000 ]
  weight: 24   
  band:
  - # 1
    frequency:     1.6748400098
  - # 2
    frequency:     1.6750920008
  - # 3
    frequency:     2.6745308807
  - # 4
    frequency:     2.8304510513
  - # 5
    frequency:     2.8475945455
  - # 6
    frequency:     3.1256206288

- q-position: [   -0.4791667,    0.0208333,    0.0000000 ]
  weight: 24   
  band:
  - # 1
    frequency:     1.6668204730
  - # 2
    frequency:     1.6794361745
  - # 3
    frequency:     2.6666458518
  - # 4
    frequency:     2.8337258238
  - # 5
    frequency:     2.8443824944
  - # 6
    frequency:     3.1329245643

- q-position: [   -0.4583333,    0.0208333,    0.0000000 ]
  weight: 24   
  band:
  - # 1
    frequency:     1.6480301832
  - # 2
    frequency:     1.6733250396
  - # 3
    frequency:     2.6169095495
  - # 4
    frequency:     2.8393348799
  - # 5
    frequency:     2.8397654466
  - # 6
    frequency:     3.1773238598

- q-position: [   -0.4375000,    0.0208333,    0.0000000 ]
  weight: 24   
  band:
  - # 1
    frequency:     1.6197048162
  - # 2
    frequency:     1.6568628788
  - # 3
    frequency:     2.5402195340
  - # 4
    frequency:     2.8371334152
  - # 5
    frequency:     2.8475459240
  - # 6
    frequency:     3.2382708043

- q-position: [   -0.4166667,    0.0208333,    0.0000000 ]
  weight: 24   
  band:
  - # 1
    frequency:     1.5831132733
  - # 2
    frequency:     1.6308357608
  - # 3
    frequency:     2.4502173945
  - # 4
    frequency:     2.8368319015
  - # 5
    frequency:     2.8553118279
  - # 6
    frequency:     3.3014729915

- q-position: [   -0.3958333,    0.0208333,    0.0000000 ]
  weight: 24   
  band:
  - # 1
    frequency:     1.5396475125
  - # 2
    frequency:     1.5962708828
  - # 3
    frequency:     2.3549206531
  - # 4
    frequency:     2.8355516270
  - # 5
    frequency:     2.8608193970
  - # 6
    frequency:     3.3597602292

- q-position: [   -0.3750000,    0.0208333,    0.0000000 ]
  weight: 24   
  band:
  - # 1
    frequency:     1.4906304790
  - # 2
    frequency:     1.5542505780
  - # 3
    frequency:     2.2585038812
  - # 4
    frequency:     2.8304379617
  - # 5
    frequency:     2.8615908784
  - # 6
    frequency:     3.4095367536

- q-position: [   -0.3541667,    0.0208333,    0.0000000 ]
  weight: 24   
  band:
  - # 1
    frequency:     1.4371884674
  - # 2
    frequency:     1.5057776881
  - # 3
    frequency:     2.1630181094
  - # 4
    frequency:     2.8188608937
  - # 5
    frequency:     2.8551276338
  - # 6
    frequency:     3.4490129781

- q-position: [   -0.3333333,    0.0208333,    0.0000000 ]
  weight: 24   
  band:
  - # 1
    frequency:     1.3801899071
  - # 2
    frequency:     1.4517039142
  - # 3
    frequency:     2.0692144470
  - # 4
    frequency:     2.7984328903
  - # 5
    frequency:     2.8390667098
  - # 6
    frequency:     3.4774862578

- q-position: [   -0.3125000,    0.0208333,    0.0000000 ]
  weight: 24   
  band:
  - # 1
    frequency:     1.3202358738
  - # 2
    frequency:     1.3927091711
  - # 3
    frequency:     1.9769436745
  - # 4
    frequency:     2.7670415802
  - # 5
    frequency:     2.8112896304
  - # 6
    frequency:     3.4950214256

- q-position: [   -0.2916667,    0.0208333,    0.0000000 ]
  weight: 24   
  band:
  - # 1
    frequency:     1.2576846068
  - # 2
    frequency:     1.3293132313
  - # 3
    frequency:     1.8854062328
  - # 4
    frequency:     2.7228939202
  - # 5
    frequency:     2.7699996649
  - # 6
    frequency:     3.5022744916

- q-position: [   -0.2708333,    0.0208333,    0.0000000 ]
  weight: 24   
  band:
  - # 1
    frequency:     1.1926948650
  - # 2
    frequency:     1.2619036904
  - # 3
    frequency:     1.7933577658
  - # 4
    frequency:     2.6645652480
  - # 5
    frequency:     2.7137819872
  - # 6
    frequency:     3.5003638314

- q-position: [   -0.2500000,    0.0208333,    0.0000000 ]
  weight: 24   
  band:
  - # 1
    frequency:     1.1252764250
  - # 2
    frequency:     1.1907695393
  - # 3
    frequency:     1.6993010096
  - # 4
    frequency:     2.5910520025
  - # 5
    frequency:     2.6416569115
  - # 6
    frequency:     3.4907527152

- q-position: [   -0.2291667,    0.0208333,    0.0000000 ]
  weight: 24   
  band:
  - # 1
    frequency:     1.0553391617
  - # 2
    frequency:     1.1161339621
  - # 3
    frequency:     1.6016654534
  - # 4
    frequency:     2.5018293957
  - # 5
    frequency:     2.5531332280
  - # 6
    frequency:     3.4751305363

- q-position: [   -0.2083333,    0.0208333,    0.0000000 ]
  weight: 24   
  band:
  - # 1
    frequency:     0.9827347230
  - # 2
    frequency:     1.0381824873
  - # 3
    frequency:     1.4989671112
  - # 4
    frequency:     2.3969174855
  - # 5
    frequency:     2.4482676250
  - # 6
    frequency:     3.4552906310

- q-position: [   -0.1875000,    0.0208333,    0.0000000 ]
  weight: 24   
  band:
  - # 1
    frequency:     0.9072864118
  - # 2
    frequency:     0.9570834124
  - # 3
    frequency:     1.3899412361
  - # 4
    frequency:     2.2769623713
  - # 5
    frequency:     2.3277373955
  - # 6
    frequency:     3.4330082516

- q-position: [   -0.1666667,    0.0208333,    0.0000000 ]
  weight: 24   
  band:
  - # 1
    frequency:     0.8288031053
  - # 2
    frequency:     0.8729967455
  - # 3
    frequency:     1.2736452581
  - # 4
    frequency:     2.1433441406
  - # 5
    frequency:     2.1929371888
  - # 6
    frequency:     3.4099259997

- q-position: [   -0.1458333,    0.0208333,    0.0000000 ]
  weight: 24   
  band:
  - # 1
    frequency:     0.7470721100
  - # 2
    frequency:     0.7860659878
  - # 3
    frequency:     1.1495344278
  - # 4
    frequency:     1.9983299352
  - # 5
    frequency:     2.0461165851
  - # 6
    frequency:     3.3874565236

- q-position: [   -0.1250000,    0.0208333,    0.0000000 ]
  weight: 24   
  band:
  - # 1
    frequency:     0.6618259263
  - # 2
    frequency:     0.6963847962
  - # 3
    frequency:     1.0175176920
  - # 4
    frequency:     1.8452979944
  - # 5
    frequency:     1.8905829339
  - # 6
    frequency:     3.3667129331

- q-position: [   -0.1041667,    0.0208333,    0.0000000 ]
  weight: 24   
  band:
  - # 1
    frequency:     0.5726874240
  - # 2
    frequency:     0.6039324620
  - # 3
    frequency:     0.8780082626
  - # 4
    frequency:     1.6890603184
  - # 5
    frequency:     1.7309978159
  - # 6
    frequency:     3.3484751142

- q-position: [   -0.0833333,    0.0208333,    0.0000000 ]
  weight: 24   
  band:
  - # 1
    frequency:     0.4791455177
  - # 2
    frequency:     0.5084961315
  - # 3
    frequency:     0.7319996416
  - # 4
    frequency:     1.5362851542
  - # 5
    frequency:     1.5737752647
  - # 6
    frequency:     3.3331939897

- q-position: [   -0.0625000,    0.0208333,    0.0000000 ]
  weight: 24   
  band:
  - # 1
    frequency:     0.3807870417
  - # 2
    frequency:     0.4097003769
  - # 3
    frequency:     0.5812496623
  - # 4
    frequency:     1.3959142906
  - # 5
    frequency:     1.4274904558
  - # 6
    frequency:     3.3210244686

- q-position: [   -0.0416667,    0.0208333,    0.0000000 ]
  weight: 24   
  band:
  - # 1
    frequency:     0.2786010893
  - # 2
    frequency:     0.3075969395
  - # 3
    frequency:     0.4288624432
  - # 4
    frequency:     1.2792454164
  - # 5
    frequency:     1.3029441669
  - # 6
    frequency:     3.3118544992

- q-position: [   -0.0208333,    0.0208333,    0.0000000 ]
  weight: 12   
  band:
  - # 1
    frequency:     0.1807482142
  - # 2
    frequency:     0.2053867730
  - # 3
    frequency:     0.2817246526
  - # 4
    frequency:     1.1991920093
  - # 5
    frequency:     1.2121687128
  - # 6
    frequency:     3.3052493880

- q-position: [    0.0416667,    0.0416667,    0.0000000 ]
  weight: 6    
  band:
  - # 1
    frequency:     0.2477981002
  - # 2
    frequency:     0.2477981002
  - # 3
    frequency:     0.4234754073
  - # 4
    frequency:     1.2526999757
  - # 5
    frequency:     1.2526999757
  - # 6
    frequency:     3.3184839151

- q-position: [    0.0625000,    0.0416667,    0.0000000 ]
  weight: 24   
  band:
  - # 1
    frequency:     0.3178470439
  - # 2
    frequency:     0.3225877053
  - # 3
    frequency:     0.5396032721
  - # 4
    frequency:     1.3244762514
  - # 5
    frequency:     1.3302340489
  - # 6
    frequency:     3.3261684721

- q-position: [    0.0833333,    0.0416667,    0.0000000 ]
  weight: 24   
  band:
  - # 1
    frequency:     0.4013822234
  - # 2
    frequency:     0.4147607373
  - # 3
    frequency:     0.6685936754
  - # 4
    frequency:     1.4298128448
  - # 5
    frequency:     1.4479313465
  - # 6
    frequency:     3.3337516842

- q-position: [    0.1041667,    0.0416667,    0.0000000 ]
  weight: 24   
  band:
  - # 1
    frequency:     0.4873905562
  - # 2
    frequency:     0.5098257430
  - # 3
    frequency:     0.8023219435
  - # 4
    frequency:     1.5582024898
  - # 5
    frequency:     1.5898710868
  - # 6
    frequency:     3.3429766318

- q-position: [    0.1250000,    0.0416667,    0.0000000 ]
  weight: 24   
  band:
  - # 1
    frequency:     0.5720541086
  - # 2
    frequency:     0.6037399865
  - # 3
    frequency:     0.9360145648
  - # 4
    frequency:     1.6996267896
  - # 5
    frequency:     1.7438322271
  - # 6
    frequency:     3.3545920791

- q-position: [    0.1458333,    0.0416667,    0.0000000 ]
  weight: 24   
  band:
  - # 1
    frequency:     0.6542528871
  - # 2
    frequency:     0.6956213806
  - # 3
    frequency:     1.0665446898
  - # 4
    frequency:     1.8457167808
  - # 5
    frequency:     1.9008380513
  - # 6
    frequency:     3.3687721498

- q-position: [    0.1666667,    0.0416667,    0.0000000 ]
  weight: 24   
  band:
  - # 1
    frequency:     0.7337625464
  - # 2
    frequency:     0.7852548753
  - # 3
    frequency:     1.1919328896
  - # 4
    frequency:     1.9899935836
  - # 5
    frequency:     2.0543674003
  - # 6
    frequency:     3.3852930689

- q-position: [    0.1875000,    0.0416667,    0.0000000 ]
  weight: 24   
  band:
  - # 1
    frequency:     0.8106382426
  - # 2
    frequency:     0.8724679682
  - # 3
    frequency:     1.3110782602
  - # 4
    frequency:     2.1276634057
  - # 5
    frequency:     2.1997123217
  - # 6
    frequency:     3.4035704223

- q-position: [    0.2083333,    0.0416667,    0.0000000 ]
  weight: 24   
  band:
  - # 1
    frequency:     0.8850274598
  - # 2
    frequency:     0.9570409707
  - # 3
    frequency:     1.4235766742
  - # 4
    frequency:     2.2553068520
  - # 5
    frequency:     2.3335110698
  - # 6
    frequency:     3.4226752835

- q-position: [    0.2291667,    0.0416667,    0.0000000 ]
  weight: 24   
  band:
  - # 1
    frequency:     0.9571161641
  - # 2
    frequency:     1.0387315101
  - # 3
    frequency:     1.5295890290
  - # 4
    frequency:     2.3706035672
  - # 5
    frequency:     2.4534351747
  - # 6
    frequency:     3.4413705717

- q-position: [    0.2500000,    0.0416667,    0.0000000 ]
  weight: 24   
  band:
  - # 1
    frequency:     1.0271058756
  - # 2
    frequency:     1.1173029404
  - # 3
    frequency:     1.6297323603
  - # 4
    frequency:     2.4721221451
  - # 5
    frequency:     2.5579893714
  - # 6
    frequency:     3.4581759700

- q-position: [    0.2708333,    0.0416667,    0.0000000 ]
  weight: 24   
  band:
  - # 1
    frequency:     1.0951907370
  - # 2
    frequency:     1.1925335807
  - # 3
    frequency:     1.7249741957
  - # 4
    frequency:     2.5591657404
  - # 5
    frequency:     2.6463866481
  - # 6
    frequency:     3.4714567709

- q-position: [    0.2916667,    0.0416667,    0.0000000 ]
  weight: 24   
  band:
  - # 1
    frequency:     1.1615275688
  - # 2
    frequency:     1.2642039204
  - # 3
    frequency:     1.8165182709
  - # 4
    frequency:     2.6316564703
  - # 5
    frequency:     2.7184700996
  - # 6
    frequency:     3.4795284362

- q-position: [    0.3125000,    0.0416667,    0.0000000 ]
  weight: 24   
  band:
  - # 1
    frequency:     1.2261991454
  - # 2
    frequency:     1.3320630906
  - # 3
    frequency:     1.9056756301
  - # 4
    frequency:     2.6900444302
  - # 5
    frequency:     2.7746612148
  - # 6
    frequency:     3.4807698883

- q-position: [    0.3333333,    0.0416667,    0.0000000 ]
  weight: 24   
  band:
  - # 1
    frequency:     1.2891729030
  - # 2
    frequency:     1.3957789511
  - # 3
    frequency:     1.9937184380
  - # 4
    frequency:     2.7352314872
  - # 5
    frequency:     2.8159206028
  - # 6
    frequency:     3.4737412522

- q-position: [    0.3541667,    0.0416667,    0.0000000 ]
  weight: 24   
  band:
  - # 1
    frequency:     1.3502579095
  - # 2
    frequency:     1.4548812273
  - # 3
    frequency:     2.0817140378
  - # 4
    frequency:     2.7685034042
  - # 5
    frequency:     2.8437134592
  - # 6
    frequency:     3.4573040739

- q-position: [    0.3750000,    0.0416667,    0.0000000 ]
  weight: 24   
  band:
  - # 1
    frequency:     1.4090636366
  - # 2
    frequency:     1.5087124973
  - # 3
    frequency:     2.1703332812
  - # 4
    frequency:     2.7914656813
  - # 5
    frequency:     2.8599786941
  - # 6
    frequency:     3.4307447870

- q-position: [    0.3958333,    0.0416667,    0.0000000 ]
  weight: 24   
  band:
  - # 1
    frequency:     1.4649655759
  - # 2
    frequency:     1.5564040911
  - # 3
    frequency:     2.2596174947
  - # 4
    frequency:     2.8059785987
  - # 5
    frequency:     2.8671072289
  - # 6
    frequency:     3.3939094393

- q-position: [    0.4166667,    0.0416667,    0.0000000 ]
  weight: 24   
  band:
  - # 1
    frequency:     1.5170855156
  - # 2
    frequency:     1.5968917521
  - # 3
    frequency:     2.3486641192
  - # 4
    frequency:     2.8140852089
  - # 5
    frequency:     2.8679419933
  - # 6
    frequency:     3.3473775130

- q-position: [    0.4375000,    0.0416667,    0.0000000 ]
  weight: 24   
  band:
  - # 1
    frequency:     1.5642982643
  - # 2
    frequency:     1.6289816227
  - # 3
    frequency:     2.4351368338
  - # 4
    frequency:     2.8179227158
  - # 5
    frequency:     2.8658135782
  - # 6
    frequency:     3.2927546033

- q-position: [    0.4583333,    0.0416667,    0.0000000 ]
  weight: 24   
  band:
  - # 1