nqpoint: 303    
npath: 3      
natom: 12     
reciprocal_lattice:
- [   0.15904160,  -0.00001537,  -0.00173934 ] # a*
- [  -0.00002445,   0.16054537,  -0.00000085 ] # b*
- [  -0.00172422,   0.00000957,   0.15691334 ] # c*
phonon:
- q-position: [    0.5000000,    0.5000000,    0.5000000 ]
  distance:    0.0000000
  band:
  - # 1
    frequency:   -0.4828607007
  - # 2
    frequency:   -0.1076073842
  - # 3
    frequency:    0.8968662507
  - # 4
    frequency:    1.0832446084
  - # 5
    frequency:    1.1340655024
  - # 6
    frequency:    1.2435976710
  - # 7
    frequency:    1.7336357212
  - # 8
    frequency:    1.9770204795
  - # 9
    frequency:    2.1967217125
  - # 10
    frequency:    2.2666858962
  - # 11
    frequency:    2.4751177510
  - # 12
    frequency:    2.8100543934
  - # 13
    frequency:    2.8905896093
  - # 14
    frequency:    3.2149748634
  - # 15
    frequency:    3.5683182318
  - # 16
    frequency:    3.5802277224
  - # 17
    frequency:    3.9662422414
  - # 18
    frequency:    4.1627275329
  - # 19
    frequency:    9.4740255662
  - # 20
    frequency:   26.1617382266
  - # 21
    frequency:   27.2709626017
  - # 22
    frequency:   30.1843106605
  - # 23
    frequency:   36.3460023828
  - # 24
    frequency:   37.1138765971
  - # 25
    frequency:   41.3132571660
  - # 26
    frequency:   42.5720119338
  - # 27
    frequency:   42.7138243422
  - # 28
    frequency:   43.8955251421
  - # 29
    frequency:   46.2899725803
  - # 30
    frequency:   46.8126618603
  - # 31
    frequency:   89.0537348154
  - # 32
    frequency:   91.9933288515
  - # 33
    frequency:   92.0999812516
  - # 34
    frequency:   92.3363933081
  - # 35
    frequency:   93.2896750335
  - # 36
    frequency:   95.8564664866

- q-position: [    0.4950000,    0.4950000,    0.4950000 ]
  distance:    0.0013656
  band:
  - # 1
    frequency:   -0.4826777729
  - # 2
    frequency:   -0.1066441009
  - # 3
    frequency:    0.8968927597
  - # 4
    frequency:    1.0831512346
  - # 5
    frequency:    1.1340969875
  - # 6
    frequency:    1.2435519885
  - # 7
    frequency:    1.7336356013
  - # 8
    frequency:    1.9769377175
  - # 9
    frequency:    2.1964722414
  - # 10
    frequency:    2.2665438607
  - # 11
    frequency:    2.4748996217
  - # 12
    frequency:    2.8100683834
  - # 13
    frequency:    2.8904553943
  - # 14
    frequency:    3.2147849239
  - # 15
    frequency:    3.5678969519
  - # 16
    frequency:    3.5804170317
  - # 17
    frequency:    3.9660308482
  - # 18
    frequency:    4.1626690859
  - # 19
    frequency:    9.4740958269
  - # 20
    frequency:   26.1617978235
  - # 21
    frequency:   27.2709687198
  - # 22
    frequency:   30.1843018410
  - # 23
    frequency:   36.3459924444
  - # 24
    frequency:   37.1138169471
  - # 25
    frequency:   41.3132427692
  - # 26
    frequency:   42.5719797584
  - # 27
    frequency:   42.7138231218
  - # 28
    frequency:   43.8955128461
  - # 29
    frequency:   46.2899555999
  - # 30
    frequency:   46.8126252191
  - # 31
    frequency:   89.0537355892
  - # 32
    frequency:   91.9933006925
  - # 33
    frequency:   92.1000065342
  - # 34
    frequency:   92.3364243220
  - # 35
    frequency:   93.2896435050
  - # 36
    frequency:   95.8564966294

- q-position: [    0.4900000,    0.4900000,    0.4900000 ]
  distance:    0.0027312
  band:
  - # 1
    frequency:   -0.4821288543
  - # 2
    frequency:   -0.1037034402
  - # 3
    frequency:    0.8969723525
  - # 4
    frequency:    1.0828721088
  - # 5
    frequency:    1.1341895125
  - # 6
    frequency:    1.2434151025
  - # 7
    frequency:    1.7336352404
  - # 8
    frequency:    1.9766892714
  - # 9
    frequency:    2.1957237407
  - # 10
    frequency:    2.2661182409
  - # 11
    frequency:    2.4742453852
  - # 12
    frequency:    2.8101096478
  - # 13
    frequency:    2.8900530707
  - # 14
    frequency:    3.2142153100
  - # 15
    frequency:    3.5666898118
  - # 16
    frequency:    3.5809279564
  - # 17
    frequency:    3.9653973040
  - # 18
    frequency:    4.1624940675
  - # 19
    frequency:    9.4743063042
  - # 20
    frequency:   26.1619764493
  - # 21
    frequency:   27.2709870520
  - # 22
    frequency:   30.1842754144
  - # 23
    frequency:   36.3459627418
  - # 24
    frequency:   37.1136381126
  - # 25
    frequency:   41.3131996389
  - # 26
    frequency:   42.5718833191
  - # 27
    frequency:   42.7138194643
  - # 28
    frequency:   43.8954759964
  - # 29
    frequency:   46.2899046759
  - # 30
    frequency:   46.8125153688
  - # 31
    frequency:   89.0537379066
  - # 32
    frequency:   91.9932163325
  - # 33
    frequency:   92.1000822530
  - # 34
    frequency:   92.3365173409
  - # 35
    frequency:   93.2895487587
  - # 36
    frequency:   95.8565869599

- q-position: [    0.4850000,    0.4850000,    0.4850000 ]
  distance:    0.0040968
  band:
  - # 1
    frequency:   -0.4812135380
  - # 2
    frequency:   -0.0986176805
  - # 3
    frequency:    0.8971052176
  - # 4
    frequency:    1.0824101125
  - # 5
    frequency:    1.1343374105
  - # 6
    frequency:    1.2431874925
  - # 7
    frequency:    1.7336346305
  - # 8
    frequency:    1.9762746627
  - # 9
    frequency:    2.1944759641
  - # 10
    frequency:    2.2654104787
  - # 11
    frequency:    2.4731554928
  - # 12
    frequency:    2.8101760596
  - # 13
    frequency:    2.8893836188
  - # 14
    frequency:    3.2132666333
  - # 15
    frequency:    3.5648108815
  - # 16
    frequency:    3.5816455200
  - # 17
    frequency:    3.9643435200
  - # 18
    frequency:    4.1622034376
  - # 19
    frequency:    9.4746560845
  - # 20
    frequency:   26.1622736097
  - # 21
    frequency:   27.2710175317
  - # 22
    frequency:   30.1842314759
  - # 23
    frequency:   36.3459136120
  - # 24
    frequency:   37.1133404410
  - # 25
    frequency:   41.3131279547
  - # 26
    frequency:   42.5717228762
  - # 27
    frequency:   42.7138133806
  - # 28
    frequency:   43.8954147078
  - # 29
    frequency:   46.2898198593
  - # 30
    frequency:   46.8123325289
  - # 31
    frequency:   89.0537417554
  - # 32
    frequency:   91.9930761215
  - # 33
    frequency:   92.1002080229
  - # 34
    frequency:   92.3366722967
  - # 35
    frequency:   93.2893903128
  - # 36
    frequency:   95.8567371854

- q-position: [    0.4800000,    0.4800000,    0.4800000 ]
  distance:    0.0054623
  band:
  - # 1
    frequency:   -0.4799311399
  - # 2
    frequency:   -0.0910442510
  - # 3
    frequency:    0.8972916410
  - # 4
    frequency:    1.0817697153
  - # 5
    frequency:    1.1345316294
  - # 6
    frequency:    1.2428699404
  - # 7
    frequency:    1.7336337454
  - # 8
    frequency:    1.9756931003
  - # 9
    frequency:    2.1927285529
  - # 10
    frequency:    2.2644229174
  - # 11
    frequency:    2.4716306867
  - # 12
    frequency:    2.8102640379
  - # 13
    frequency:    2.8884487277
  - # 14
    frequency:    3.2119399108
  - # 15
    frequency:    3.5623540885
  - # 16
    frequency:    3.5824743003
  - # 17
    frequency:    3.9628727001
  - # 18
    frequency:    4.1617987690
  - # 19
    frequency:    9.4751436499
  - # 20
    frequency:   26.1626884826
  - # 21
    frequency:   27.2710600479
  - # 22
    frequency:   30.1841701839
  - # 23
    frequency:   36.3458456146
  - # 24
    frequency:   37.1129245103
  - # 25
    frequency:   41.3130280157
  - # 26
    frequency:   42.5714988623
  - # 27
    frequency:   42.7138048890
  - # 28
    frequency:   43.8953291708
  - # 29
    frequency:   46.2897012356
  - # 30
    frequency:   46.8120770646
  - # 31
    frequency:   89.0537471153
  - # 32
    frequency:   91.9928806371
  - # 33
    frequency:   92.1003832084
  - # 34
    frequency:   92.3368890751
  - # 35
    frequency:   93.2891673673
  - # 36
    frequency:   95.8569468192

- q-position: [    0.4750000,    0.4750000,    0.4750000 ]
  distance:    0.0068279
  band:
  - # 1
    frequency:   -0.4782806899
  - # 2
    frequency:   -0.0803079317
  - # 3
    frequency:    0.8975319654
  - # 4
    frequency:    1.0809565386
  - # 5
    frequency:    1.1347602581
  - # 6
    frequency:    1.2424635055
  - # 7
    frequency:    1.7336325209
  - # 8
    frequency:    1.9749434894
  - # 9
    frequency:    2.1904811097
  - # 10
    frequency:    2.2631587177
  - # 11
    frequency:    2.4696719864
  - # 12
    frequency:    2.8103684892
  - # 13
    frequency:    2.8872508831
  - # 14
    frequency:    3.2102365607
  - # 15
    frequency:    3.5593731185
  - # 16
    frequency:    3.5833585521
  - # 17
    frequency:    3.9609893662
  - # 18
    frequency:    4.1612822068
  - # 19
    frequency:    9.4757668842
  - # 20
    frequency:   26.1632199209
  - # 21
    frequency:   27.2711144445
  - # 22
    frequency:   30.1840917593
  - # 23
    frequency:   36.3457595294
  - # 24
    frequency:   37.1123911280
  - # 25
    frequency:   41.3129002389
  - # 26
    frequency:   42.5712118804
  - # 27
    frequency:   42.7137940160
  - # 28
    frequency:   43.8952196514
  - # 29
    frequency:   46.2895489242
  - # 30
    frequency:   46.8117494854
  - # 31
    frequency:   89.0537539582
  - # 32
    frequency:   91.9926306771
  - # 33
    frequency:   92.1006069336
  - # 34
    frequency:   92.3371675152
  - # 35
    frequency:   93.2888788079
  - # 36
    frequency:   95.8572151821

- q-position: [    0.4700000,    0.4700000,    0.4700000 ]
  distance:    0.0081935
  band:
  - # 1
    frequency:   -0.4762609186
  - # 2
    frequency:   -0.0648973605
  - # 3
    frequency:    0.8978265345
  - # 4
    frequency:    1.0799768501
  - # 5
    frequency:    1.1350091543
  - # 6
    frequency:    1.2419694873
  - # 7
    frequency:    1.7336308288
  - # 8
    frequency:    1.9740244434
  - # 9
    frequency:    2.1877332937
  - # 10
    frequency:    2.2616217471
  - # 11
    frequency:    2.4672806697
  - # 12
    frequency:    2.8104827133
  - # 13
    frequency:    2.8857934995
  - # 14
    frequency:    3.2081583964
  - # 15
    frequency:    3.5558925863
  - # 16
    frequency:    3.5842710685
  - # 17
    frequency:    3.9586993926
  - # 18
    frequency:    4.1606564165
  - # 19
    frequency:    9.4765230830
  - # 20
    frequency:   26.1638664556
  - # 21
    frequency:   27.2711805200
  - # 22
    frequency:   30.1839964850
  - # 23
    frequency:   36.3456563518
  - # 24
    frequency:   37.1117413302
  - # 25
    frequency:   41.3127451584
  - # 26
    frequency:   42.5708627014
  - # 27
    frequency:   42.7137807963
  - # 28
    frequency:   43.8950864894
  - # 29
    frequency:   46.2893630786
  - # 30
    frequency:   46.8113504430
  - # 31
    frequency:   89.0537622481
  - # 32
    frequency:   91.9923272484
  - # 33
    frequency:   92.1008780944
  - # 34
    frequency:   92.3375074079
  - # 35
    frequency:   93.2885232116
  - # 36
    frequency:   95.8575414054

- q-position: [    0.4650000,    0.4650000,    0.4650000 ]
  distance:    0.0095591
  band:
  - # 1
    frequency:   -0.4738702404
  - # 2
    frequency:   -0.0397795029
  - # 3
    frequency:    0.8981756250
  - # 4
    frequency:    1.0788370604
  - # 5
    frequency:    1.1352626039
  - # 6
    frequency:    1.2413893789
  - # 7
    frequency:    1.7336284436
  - # 8
    frequency:    1.9729342982
  - # 9
    frequency:    2.1844849307
  - # 10
    frequency:    2.2598164531
  - # 11
    frequency:    2.4644582508
  - # 12
    frequency:    2.8105982607
  - # 13
    frequency:    2.8840811090
  - # 14
    frequency:    3.2057076206
  - # 15
    frequency:    3.5519213491
  - # 16
    frequency:    3.5851999086
  - # 17
    frequency:    3.9560100457
  - # 18
    frequency:    4.1599245189
  - # 19
    frequency:    9.4774089645
  - # 20
    frequency:   26.1646263013
  - # 21
    frequency:   27.2712580264
  - # 22
    frequency:   30.1838847045
  - # 23
    frequency:   36.3455372887
  - # 24
    frequency:   37.1109763791
  - # 25
    frequency:   41.3125634237
  - # 26
    frequency:   42.5704522609
  - # 27
    frequency:   42.7137652740
  - # 28
    frequency:   43.8949300975
  - # 29
    frequency:   46.2891438864
  - # 30
    frequency:   46.8108807295
  - # 31
    frequency:   89.0537719411
  - # 32
    frequency:   91.9919715547
  - # 33
    frequency:   92.1011953751
  - # 34
    frequency:   92.3379084945
  - # 35
    frequency:   93.2880988539
  - # 36
    frequency:   95.8579244335

- q-position: [    0.4600000,    0.4600000,    0.4600000 ]
  distance:    0.0109247
  band:
  - # 1
    frequency:   -0.4711067309
  - # 2
    frequency:    0.0378264415
  - # 3
    frequency:    0.8985793691
  - # 4
    frequency:    1.0775432735
  - # 5
    frequency:    1.1355039534
  - # 6
    frequency:    1.2407248084
  - # 7
    frequency:    1.7336250036
  - # 8
    frequency:    1.9716711278
  - # 9
    frequency:    2.1807361302
  - # 10
    frequency:    2.2577477278
  - # 11
    frequency:    2.4612064563
  - # 12
    frequency:    2.8107047260
  - # 13
    frequency:    2.8821196229
  - # 14
    frequency:    3.2028868174
  - # 15
    frequency:    3.5474610388
  - # 16
    frequency:    3.5861399128
  - # 17
    frequency:    3.9529300268
  - # 18
    frequency:    4.1590900180
  - # 19
    frequency:    9.4784206846
  - # 20
    frequency:   26.1654973611
  - # 21
    frequency:   27.2713466692
  - # 22
    frequency:   30.1837568214
  - # 23
    frequency:   36.3454037512
  - # 24
    frequency:   37.1100977611
  - # 25
    frequency:   41.3123557971
  - # 26
    frequency:   42.5699816550
  - # 27
    frequency:   42.7137475028
  - # 28
    frequency:   43.8947509594
  - # 29
    frequency:   46.2888915695
  - # 30
    frequency:   46.8103412744
  - # 31
    frequency:   89.0537829862
  - # 32
    frequency:   91.9915649808
  - # 33
    frequency:   92.1015572660
  - # 34
    frequency:   92.3383704655
  - # 35
    frequency:   93.2876037179
  - # 36
    frequency:   95.8583630279

- q-position: [    0.4550000,    0.4550000,    0.4550000 ]
  distance:    0.0122903
  band:
  - # 1
    frequency:   -0.4679680991
  - # 2
    frequency:    0.0694218803
  - # 3
    frequency:    0.8990376684
  - # 4
    frequency:    1.0761009261
  - # 5
    frequency:    1.1357161812
  - # 6
    frequency:    1.2399774704
  - # 7
    frequency:    1.7336199671
  - # 8
    frequency:    1.9702327600
  - # 9
    frequency:    2.1764874019
  - # 10
    frequency:    2.2554207726
  - # 11
    frequency:    2.4575271997
  - # 12
    frequency:    2.8107894491
  - # 13
    frequency:    2.8799166869
  - # 14
    frequency:    3.1996989438
  - # 15
    frequency:    3.5425106784
  - # 16
    frequency:    3.5870881411
  - # 17
    frequency:    3.9494695160
  - # 18
    frequency:    4.1581567230
  - # 19
    frequency:    9.4795538535
  - # 20
    frequency:   26.1664772341
  - # 21
    frequency:   27.2714461057
  - # 22
    frequency:   30.1836132974
  - # 23
    frequency:   36.3452573486
  - # 24
    frequency:   37.1091071838
  - # 25
    frequency:   41.3121231521
  - # 26
    frequency:   42.5694521363
  - # 27
    frequency:   42.7137275473
  - # 28
    frequency:   43.8945496278
  - # 29
    frequency:   46.2886063834
  - # 30
    frequency:   46.8097331414
  - # 31
    frequency:   89.0537953248
  - # 32
    frequency:   91.9911090771
  - # 33
    frequency:   92.1019620844
  - # 34
    frequency:   92.3388929583
  - # 35
    frequency:   93.2870355045
  - # 36
    frequency:   95.8588557721

- q-position: [    0.4500000,    0.4500000,    0.4500000 ]
  distance:    0.0136558
  band:
  - # 1
    frequency:   -0.4644516531
  - # 2
    frequency:    0.0925931896
  - # 3
    frequency:    0.8995501036
  - # 4
    frequency:    1.0745145271
  - # 5
    frequency:    1.1358823901
  - # 6
    frequency:    1.2391490465
  - # 7
    frequency:    1.7336125644
  - # 8
    frequency:    1.9686167918
  - # 9
    frequency:    2.1717397651
  - # 10
    frequency:    2.2528409722
  - # 11
    frequency:    2.4534225563
  - # 12
    frequency:    2.8108370957
  - # 13
    frequency:    2.8774821633
  - # 14
    frequency:    3.1961473220
  - # 15
    frequency:    3.5370689946
  - # 16
    frequency:    3.5880416209
  - # 17
    frequency:    3.9456402135
  - # 18
    frequency:    4.1571286673
  - # 19
    frequency:    9.4808035542
  - # 20
    frequency:   26.1675632222
  - # 21
    frequency:   27.2715559444
  - # 22
    frequency:   30.1834546511
  - # 23
    frequency:   36.3450998792
  - # 24
    frequency:   37.1080065730
  - # 25
    frequency:   41.3118664697
  - # 26
    frequency:   42.5688651080
  - # 27
    frequency:   42.7137054837
  - # 28
    frequency:   43.8943267223
  - # 29
    frequency:   46.2882886181
  - # 30
    frequency:   46.8090575248
  - # 31
    frequency:   89.0538088915
  - # 32
    frequency:   91.9906055418
  - # 33
    frequency:   92.1024079954
  - # 34
    frequency:   92.3394755556
  - # 35
    frequency:   93.2863916438
  - # 36
    frequency:   95.8594010760

- q-position: [    0.4450000,    0.4450000,    0.4450000 ]
  distance:    0.0150214
  band:
  - # 1
    frequency:   -0.4605542578
  - # 2
    frequency:    0.1126158033
  - # 3
    frequency:    0.9001158413
  - # 4
    frequency:    1.0727874935
  - # 5
    frequency:    1.1359862204
  - # 6
    frequency:    1.2382411187
  - # 7
    frequency:    1.7336017470
  - # 8
    frequency:    1.9668206013
  - # 9
    frequency:    2.1664948451
  - # 10
    frequency:    2.2500137843
  - # 11
    frequency:    2.4488947397
  - # 12
    frequency:    2.8108290724
  - # 13
    frequency:    2.8748287768
  - # 14
    frequency:    3.1922356304
  - # 15
    frequency:    3.5311355008
  - # 16
    frequency:    3.5889963306
  - # 17
    frequency:    3.9414553764
  - # 18
    frequency:    4.1560100283
  - # 19
    frequency:    9.4821643648
  - # 20
    frequency:   26.1687523397
  - # 21
    frequency:   27.2716757440
  - # 22
    frequency:   30.1832814563
  - # 23
    frequency:   36.3449333220
  - # 24
    frequency:   37.1067980691
  - # 25
    frequency:   41.3115868359
  - # 26
    frequency:   42.5682221187
  - # 27
    frequency:   42.7136814006
  - # 28
    frequency:   43.8940829268
  - # 29
    frequency:   46.2879385971
  - # 30
    frequency:   46.8083157452
  - # 31
    frequency:   89.0538236142
  - # 32
    frequency:   91.9900562032
  - # 33
    frequency:   92.1028930350
  - # 34
    frequency:   92.3401177834
  - # 35
    frequency:   93.2856693084
  - # 36
    frequency:   95.8599971819

- q-position: [    0.4400000,    0.4400000,    0.4400000 ]
  distance:    0.0163870
  band:
  - # 1
    frequency:   -0.4562722844
  - # 2
    frequency:    0.1308969251
  - # 3
    frequency:    0.9007335409
  - # 4
    frequency:    1.0709220710
  - # 5
    frequency:    1.1360121904
  - # 6
    frequency:    1.2372550755
  - # 7
    frequency:    1.7335861344
  - # 8
    frequency:    1.9648413571
  - # 9
    frequency:    2.1607549542
  - # 10
    frequency:    2.2469446508
  - # 11
    frequency:    2.4439460812
  - # 12
    frequency:    2.8107427283
  - # 13
    frequency:    2.8719729747
  - # 14
    frequency:    3.1879678954
  - # 15
    frequency:    3.5247109470
  - # 16
    frequency:    3.5899468188
  - # 17
    frequency:    3.9369298475
  - # 18
    frequency:    4.1548050488
  - # 19
    frequency:    9.4836303814
  - # 20
    frequency:   26.1700413221
  - # 21
    frequency:   27.2718050123
  - # 22
    frequency:   30.1830943398
  - # 23
    frequency:   36.3447598258
  - # 24
    frequency:   37.1054840231
  - # 25
    frequency:   41.3112854380
  - # 26
    frequency:   42.5675248563
  - # 27
    frequency:   42.7136554002
  - # 28
    frequency:   43.8938189869
  - # 29
    frequency:   46.2875566781
  - # 30
    frequency:   46.8075092451
  - # 31
    frequency:   89.0538394144
  - # 32
    frequency:   91.9894630024
  - # 33
    frequency:   92.1034151327
  - # 34
    frequency:   92.3408191090
  - # 35
    frequency:   93.2848654280
  - # 36
    frequency:   95.8606421713

- q-position: [    0.4350000,    0.4350000,    0.4350000 ]
  distance:    0.0177526
  band:
  - # 1
    frequency:   -0.4516015491
  - # 2
    frequency:    0.1480395402
  - # 3
    frequency:    0.9014012640
  - # 4
    frequency:    1.0689193225
  - # 5
    frequency:    1.1359459751
  - # 6
    frequency:    1.2361920150
  - # 7
    frequency:    1.7335639605
  - # 8
    frequency:    1.9626760205
  - # 9
    frequency:    2.1545231554
  - # 10
    frequency:    2.2436389334
  - # 11
    frequency:    2.4385790122
  - # 12
    frequency:    2.8105502900
  - # 13
    frequency:    2.8689360499
  - # 14
    frequency:    3.1833484842
  - # 15
    frequency:    3.5177974586
  - # 16
    frequency:    3.5908861408
  - # 17
    frequency:    3.9320800755
  - # 18
    frequency:    4.1535179636
  - # 19
    frequency:    9.4851952437
  - # 20
    frequency:   26.1714266374
  - # 21
    frequency:   27.2719432048
  - # 22
    frequency:   30.1828939798
  - # 23
    frequency:   36.3445816985
  - # 24
    frequency:   37.1040669918
  - # 25
    frequency:   41.3109635604
  - # 26
    frequency:   42.5667751405
  - # 27
    frequency:   42.7136275987
  - # 28
    frequency:   43.8935357067
  - # 29
    frequency:   46.2871432524
  - # 30
    frequency:   46.8066395843
  - # 31
    frequency:   89.0538562075
  - # 32
    frequency:   91.9888279750
  - # 33
    frequency:   92.1039721340
  - # 34
    frequency:   92.3415789394
  - # 35
    frequency:   93.2839767046
  - # 36
    frequency:   95.8613339710

- q-position: [    0.4300000,    0.4300000,    0.4300000 ]
  distance:    0.0191182
  band:
  - # 1
    frequency:   -0.4465372387
  - # 2
    frequency:    0.1643581679
  - # 3
    frequency:    0.9021163877
  - # 4
    frequency:    1.0667791681
  - # 5
    frequency:    1.1357746314
  - # 6
    frequency:    1.2350526497
  - # 7
    frequency:    1.7335330192
  - # 8
    frequency:    1.9603213405
  - # 9
    frequency:    2.1478033095
  - # 10
    frequency:    2.2401018757
  - # 11
    frequency:    2.4327960520
  - # 12
    frequency:    2.8102174963
  - # 13
    frequency:    2.8657455608
  - # 14
    frequency:    3.1783820976
  - # 15
    frequency:    3.5103985259
  - # 16
    frequency:    3.5918059462
  - # 17
    frequency:    3.9269241228
  - # 18
    frequency:    4.1521529315
  - # 19
    frequency:    9.4868521628
  - # 20
    frequency:   26.1729044970
  - # 21
    frequency:   27.2720897239
  - # 22
    frequency:   30.1826811032
  - # 23
    frequency:   36.3444013952
  - # 24
    frequency:   37.1025497335
  - # 25
    frequency:   41.3106225809
  - # 26
    frequency:   42.5659749165
  - # 27
    frequency:   42.7135981276
  - # 28
    frequency:   43.8932339460
  - # 29
    frequency:   46.2866987451
  - # 30
    frequency:   46.8057084340
  - # 31
    frequency:   89.0538739035
  - # 32
    frequency:   91.9881532352
  - # 33
    frequency:   92.1045618228
  - # 34
    frequency:   92.3423966196
  - # 35
    frequency:   93.2829996297
  - # 36
    frequency:   95.8620703613

- q-position: [    0.4250000,    0.4250000,    0.4250000 ]
  distance:    0.0204838
  band:
  - # 1
    frequency:   -0.4410738225
  - # 2
    frequency:    0.1800360324
  - # 3
    frequency:    0.9028755231
  - # 4
    frequency:    1.0645004635
  - # 5
    frequency:    1.1354867774
  - # 6
    frequency:    1.2338372157
  - # 7
    frequency:    1.7334906120
  - # 8
    frequency:    1.9577738392
  - # 9
    frequency:    2.1406001099
  - # 10
    frequency:    2.2363385905
  - # 11
    frequency:    2.4265997992
  - # 12
    frequency:    2.8097019611
  - # 13
    frequency:    2.8624370174
  - # 14
    frequency:    3.1730737654
  - # 15
    frequency:    3.5025189321
  - # 16
    frequency:    3.5926966330
  - # 17
    frequency:    3.9214816607
  - # 18
    frequency:    4.1507139753
  - # 19
    frequency:    9.4885939504
  - # 20
    frequency:   26.1744708683
  - # 21
    frequency:   27.2722439181
  - # 22
    frequency:   30.1824564839
  - # 23
    frequency:   36.3442215055
  - # 24
    frequency:   37.1009352023
  - # 25
    frequency:   41.3102639657
  - # 26
    frequency:   42.5651262470
  - # 27
    frequency:   42.7135671339
  - # 28
    frequency:   43.8929146166
  - # 29
    frequency:   46.2862236148
  - # 30
    frequency:   46.8047175718
  - # 31
    frequency:   89.0538924069
  - # 32
    frequency:   91.9874409595
  - # 33
    frequency:   92.1051819422
  - # 34
    frequency:   92.3432714316
  - # 35
    frequency:   93.2819305017
  - # 36
    frequency:   95.8628489836

- q-position: [    0.4200000,    0.4200000,    0.4200000 ]
  distance:    0.0218493
  band:
  - # 1
    frequency:   -0.4352049449
  - # 2
    frequency:    0.1951875516
  - # 3
    frequency:    0.9036744408
  - # 4
    frequency:    1.0620811057
  - # 5
    frequency:    1.1350727285
  - # 6
    frequency:    1.2325453940
  - # 7
    frequency:    1.7334334961
  - # 8
    frequency:    1.9550297829
  - # 9
    frequency:    2.1329191072
  - # 10
    frequency:    2.2323540723
  - # 11
    frequency:    2.4199929302
  - # 12
    frequency:    2.8089514548
  - # 13
    frequency:    2.8590556422
  - # 14
    frequency:    3.1674288417
  - # 15
    frequency:    3.4941646603
  - # 16
    frequency:    3.5935475259
  - # 17
    frequency:    3.9157739496
  - # 18
    frequency:    4.1492049294
  - # 19
    frequency:    9.4904130498
  - # 20
    frequency:   26.1761214880
  - # 21
    frequency:   27.2724050804
  - # 22
    frequency:   30.1822209393
  - # 23
    frequency:   36.3440447397
  - # 24
    frequency:   37.0992265422
  - # 25
    frequency:   41.3098892647
  - # 26
    frequency:   42.5642313043
  - # 27
    frequency:   42.7135347810
  - # 28
    frequency:   43.8925786788
  - # 29
    frequency:   46.2857183536
  - # 30
    frequency:   46.8036688756
  - # 31
    frequency:   89.0539116178
  - # 32
    frequency:   91.9866933718
  - # 33
    frequency:   92.1058302153
  - # 34
    frequency:   92.3442025931
  - # 35
    frequency:   93.2807654453
  - # 36
    frequency:   95.8636673492

- q-position: [    0.4150000,    0.4150000,    0.4150000 ]
  distance:    0.0232149
  band:
  - # 1
    frequency:   -0.4289232966
  - # 2
    frequency:    0.2098875098
  - # 3
    frequency:    0.9045080034
  - # 4
    frequency:    1.0595181589
  - # 5
    frequency:    1.1345245911
  - # 6
    frequency:    1.2311762465
  - # 7
    frequency:    1.7333578360
  - # 8
    frequency:    1.9520851390
  - # 9
    frequency:    2.1247667318
  - # 10
    frequency:    2.2281532307
  - # 11
    frequency:    2.4129782029
  - # 12
    frequency:    2.8079026203
  - # 13
    frequency:    2.8556576897
  - # 14
    frequency:    3.1614530033
  - # 15
    frequency:    3.4853427998
  - # 16
    frequency:    3.5943470610
  - # 17
    frequency:    3.9098238023
  - # 18
    frequency:    4.1476293949
  - # 19
    frequency:    9.4923015682
  - # 20
    frequency:   26.1778518756
  - # 21
    frequency:   27.2725724481
  - # 22
    frequency:   30.1819753288
  - # 23
    frequency:   36.3438739152
  - # 24
    frequency:   37.0974270813
  - # 25
    frequency:   41.3095001061
  - # 26
    frequency:   42.5632923620
  - # 27
    frequency:   42.7135012491
  - # 28
    frequency:   43.8922271378
  - # 29
    frequency:   46.2851834867
  - # 30
    frequency:   46.8025643173
  - # 31
    frequency:   89.0539314315
  - # 32
    frequency:   91.9859127304
  - # 33
    frequency:   92.1065043629
  - # 34
    frequency:   92.3451892573
  - # 35
    frequency:   93.2795004308
  - # 36
    frequency:   95.8645228478

- q-position: [    0.4100000,    0.4100000,    0.4100000 ]
  distance:    0.0245805
  band:
  - # 1
    frequency:   -0.4222204586
  - # 2
    frequency:    0.2241862517
  - # 3
    frequency:    0.9053701049
  - # 4
    frequency:    1.0568079955
  - # 5
    frequency:    1.1338363132
  - # 6
    frequency:    1.2297281737
  - # 7
    frequency:    1.7332591565
  - # 8
    frequency:    1.9489355128
  - # 9
    frequency:    2.1161503190
  - # 10
    frequency:    2.2237409444
  - # 11
    frequency:    2.4055584660
  - # 12
    frequency:    2.8064811568
  - # 13
    frequency:    2.8523102898
  - # 14
    frequency:    3.1551522499
  - # 15
    frequency:    3.4760614606
  - # 16
    frequency:    3.5950829668
  - # 17
    frequency:    3.9036555302
  - # 18
    frequency:    4.1459907045
  - # 19
    frequency:    9.4942513111
  - # 20
    frequency:   26.1796573488
  - # 21
    frequency:   27.2727452017
  - # 22
    frequency:   30.1817205502
  - # 23
    frequency:   36.3437119410
  - # 24
    frequency:   37.0955403248
  - # 25
    frequency:   41.3090981911
  - # 26
    frequency:   42.5623117871
  - # 27
    frequency:   42.7134667354
  - # 28
    frequency:   43.8918610396
  - # 29
    frequency:   46.2846195723
  - # 30
    frequency:   46.8014059568
  - # 31
    frequency:   89.0539517400
  - # 32
    frequency:   91.9851013153
  - # 33
    frequency:   92.1072021218
  - # 34
    frequency:   92.3462305129
  - # 35
    frequency:   93.2781312948
  - # 36
    frequency:   95.8654127575

- q-position: [    0.4050000,    0.4050000,    0.4050000 ]
  distance:    0.0259461
  band:
  - # 1
    frequency:   -0.4150867129
  - # 2
    frequency:    0.2381182572
  - # 3
    frequency:    0.9062536174
  - # 4
    frequency:    1.0539464494
  - # 5
    frequency:    1.1330036892
  - # 6
    frequency:    1.2281988965
  - # 7
    frequency:    1.7331322993
  - # 8
    frequency:    1.9455760610
  - # 9
    frequency:    2.1070781455
  - # 10
    frequency:    2.2191221302
  - # 11
    frequency:    2.3977366755
  - # 12
    frequency:    2.8046050439
  - # 13
    frequency:    2.8490882425
  - # 14
    frequency:    3.1485329067
  - # 15
    frequency:    3.4663296984
  - # 16
    frequency:    3.5957424432
  - # 17
    frequency:    3.8972948685
  - # 18
    frequency:    4.1442918940
  - # 19