nqpoint: 404    
npath: 4      
natom: 2      
phonon:
- q-position: [    0.0000000,    0.0000000,    0.0000000 ]
  distance:    0.0000000
  band:
  - # 1
    frequency:   -0.0016577108
  - # 2
    frequency:   -0.0016577108
  - # 3
    frequency:   -0.0016460165
  - # 4
    frequency:    1.4129992936
  - # 5
    frequency:    1.4129992936
  - # 6
    frequency:    3.6653390848

- q-position: [    0.0050000,    0.0025000,    0.0075000 ]
  distance:    0.0018277
  band:
  - # 1
    frequency:    0.0400310743
  - # 2
    frequency:    0.0420178034
  - # 3
    frequency:    0.0634534691
  - # 4
    frequency:    1.4157512185
  - # 5
    frequency:    1.4161292384
  - # 6
    frequency:    3.6665444937

- q-position: [    0.0100000,    0.0050000,    0.0150000 ]
  distance:    0.0036555
  band:
  - # 1
    frequency:    0.0799140311
  - # 2
    frequency:    0.0838276506
  - # 3
    frequency:    0.1268724275
  - # 4
    frequency:    1.4239603807
  - # 5
    frequency:    1.4254690303
  - # 6
    frequency:    3.6701488529

- q-position: [    0.0150000,    0.0075000,    0.0225000 ]
  distance:    0.0054832
  band:
  - # 1
    frequency:    0.1193959399
  - # 2
    frequency:    0.1251281957
  - # 3
    frequency:    0.1901521651
  - # 4
    frequency:    1.4374889600
  - # 5
    frequency:    1.4408704226
  - # 6
    frequency:    3.6761167481

- q-position: [    0.0200000,    0.0100000,    0.0300000 ]
  distance:    0.0073109
  band:
  - # 1
    frequency:    0.1583130607
  - # 2
    frequency:    0.1657150214
  - # 3
    frequency:    0.2532342590
  - # 4
    frequency:    1.4561138328
  - # 5
    frequency:    1.4620925816
  - # 6
    frequency:    3.6843897796

- q-position: [    0.0250000,    0.0125000,    0.0375000 ]
  distance:    0.0091387
  band:
  - # 1
    frequency:    0.1965186946
  - # 2
    frequency:    0.2054157869
  - # 3
    frequency:    0.3160585648
  - # 4
    frequency:    1.4795359173
  - # 5
    frequency:    1.4888113072
  - # 6
    frequency:    3.6948874768

- q-position: [    0.0300000,    0.0150000,    0.0450000 ]
  distance:    0.0109664
  band:
  - # 1
    frequency:    0.2338923872
  - # 2
    frequency:    0.2441007858
  - # 3
    frequency:    0.3785673338
  - # 4
    frequency:    1.5073922429
  - # 5
    frequency:    1.5206314842
  - # 6
    frequency:    3.7075085413

- q-position: [    0.0350000,    0.0175000,    0.0525000 ]
  distance:    0.0127942
  band:
  - # 1
    frequency:    0.2703415086
  - # 2
    frequency:    0.2816841394
  - # 3
    frequency:    0.4407061041
  - # 4
    frequency:    1.5392698145
  - # 5
    frequency:    1.5571020400
  - # 6
    frequency:    3.7221323787

- q-position: [    0.0400000,    0.0200000,    0.0600000 ]
  distance:    0.0146219
  band:
  - # 1
    frequency:    0.3057998763
  - # 2
    frequency:    0.3181204088
  - # 3
    frequency:    0.5024240520
  - # 4
    frequency:    1.5747202307
  - # 5
    frequency:    1.5977323502
  - # 6
    frequency:    3.7386208791

- q-position: [    0.0450000,    0.0225000,    0.0675000 ]
  distance:    0.0164496
  band:
  - # 1
    frequency:    0.3402245526
  - # 2
    frequency:    0.3533982872
  - # 3
    frequency:    0.5636741264
  - # 4
    frequency:    1.6132740338
  - # 5
    frequency:    1.6420088391
  - # 6
    frequency:    3.7568203942

- q-position: [    0.0500000,    0.0250000,    0.0750000 ]
  distance:    0.0182774
  band:
  - # 1
    frequency:    0.3735916720
  - # 2
    frequency:    0.3875328532
  - # 3
    frequency:    0.6244130565
  - # 4
    frequency:    1.6544539204
  - # 5
    frequency:    1.6894105573
  - # 6
    frequency:    3.7765638640

- q-position: [    0.0550000,    0.0275000,    0.0825000 ]
  distance:    0.0201051
  band:
  - # 1
    frequency:    0.4058920264
  - # 2
    frequency:    0.4205576703
  - # 3
    frequency:    0.6846012696
  - # 4
    frequency:    1.6977861860
  - # 5
    frequency:    1.7394227737
  - # 6
    frequency:    3.7976730391

- q-position: [    0.0600000,    0.0300000,    0.0900000 ]
  distance:    0.0219328
  band:
  - # 1
    frequency:    0.4371269571
  - # 2
    frequency:    0.4525176694
  - # 3
    frequency:    0.7442027417
  - # 4
    frequency:    1.7428100604
  - # 5
    frequency:    1.7915479962
  - # 6
    frequency:    3.8199607502

- q-position: [    0.0650000,    0.0325000,    0.0975000 ]
  distance:    0.0237606
  band:
  - # 1
    frequency:    0.4673048930
  - # 2
    frequency:    0.4834633551
  - # 3
    frequency:    0.8031847931
  - # 4
    frequency:    1.7890848556
  - # 5
    frequency:    1.8453142357
  - # 6
    frequency:    3.8432331800

- q-position: [    0.0700000,    0.0350000,    0.1050000 ]
  distance:    0.0255883
  band:
  - # 1
    frequency:    0.4964386865
  - # 2
    frequency:    0.5134465231
  - # 3
    frequency:    0.8615178352
  - # 4
    frequency:    1.8361950576
  - # 5
    frequency:    1.9002806510
  - # 6
    frequency:    3.8672920942

- q-position: [    0.0750000,    0.0375000,    0.1125000 ]
  distance:    0.0274161
  band:
  - # 1
    frequency:    0.5245437477
  - # 2
    frequency:    0.5425174160
  - # 3
    frequency:    0.9191750735
  - # 4
    frequency:    1.8837536252
  - # 5
    frequency:    1.9560409265
  - # 6
    frequency:    3.8919369982

- q-position: [    0.0800000,    0.0400000,    0.1200000 ]
  distance:    0.0292438
  band:
  - # 1
    frequency:    0.5516368887
  - # 2
    frequency:    0.5707231026
  - # 3
    frequency:    0.9761321714
  - # 4
    frequency:    1.9314038247
  - # 5
    frequency:    2.0122248306
  - # 6
    frequency:    3.9169671893

- q-position: [    0.0850000,    0.0425000,    0.1275000 ]
  distance:    0.0310715
  band:
  - # 1
    frequency:    0.5777357419
  - # 2
    frequency:    0.5981068047
  - # 3
    frequency:    1.0323668780
  - # 4
    frequency:    1.9788199329
  - # 5
    frequency:    2.0684984140
  - # 6
    frequency:    3.9421836808

- q-position: [    0.0900000,    0.0450000,    0.1350000 ]
  distance:    0.0328993
  band:
  - # 1
    frequency:    0.6028586068
  - # 2
    frequency:    0.6247078994
  - # 3
    frequency:    1.0878586270
  - # 4
    frequency:    2.0257071174
  - # 5
    frequency:    2.1245632561
  - # 6
    frequency:    3.9673909828

- q-position: [    0.0950000,    0.0475000,    0.1425000 ]
  distance:    0.0347270
  band:
  - # 1
    frequency:    0.6270245899
  - # 2
    frequency:    0.6505623607
  - # 3
    frequency:    1.1425881124
  - # 4
    frequency:    2.0718007495
  - # 5
    frequency:    2.1801550971
  - # 6
    frequency:    3.9923987277

- q-position: [    0.1000000,    0.0500000,    0.1500000 ]
  distance:    0.0365547
  band:
  - # 1
    frequency:    0.6502539251
  - # 2
    frequency:    0.6757034528
  - # 3
    frequency:    1.1965368478
  - # 4
    frequency:    2.1168653561
  - # 5
    frequency:    2.2350421120
  - # 6
    frequency:    4.0170231335

- q-position: [    0.1050000,    0.0525000,    0.1575000 ]
  distance:    0.0383825
  band:
  - # 1
    frequency:    0.6725683837
  - # 2
    frequency:    0.7001625331
  - # 3
    frequency:    1.2496867180
  - # 4
    frequency:    2.1606933645
  - # 5
    frequency:    2.2890230113
  - # 6
    frequency:    4.0410883055

- q-position: [    0.1100000,    0.0550000,    0.1650000 ]
  distance:    0.0402102
  band:
  - # 1
    frequency:    0.6939917094
  - # 2
    frequency:    0.7239698659
  - # 3
    frequency:    1.3020195303
  - # 4
    frequency:    2.2031037476
  - # 5
    frequency:    2.3419250908
  - # 6
    frequency:    4.0644273767

- q-position: [    0.1150000,    0.0575000,    0.1725000 ]
  distance:    0.0420380
  band:
  - # 1
    frequency:    0.7145500295
  - # 2
    frequency:    0.7471553810
  - # 3
    frequency:    1.3535165734
  - # 4
    frequency:    2.2439406461
  - # 5
    frequency:    2.3936023090
  - # 6
    frequency:    4.0868834922

- q-position: [    0.1200000,    0.0600000,    0.1800000 ]
  distance:    0.0438657
  band:
  - # 1
    frequency:    0.7342722103
  - # 2
    frequency:    0.7697493329
  - # 3
    frequency:    1.4041581920
  - # 4
    frequency:    2.2830720121
  - # 5
    frequency:    2.4439334334
  - # 6
    frequency:    4.1083106445

- q-position: [    0.1250000,    0.0625000,    0.1875000 ]
  distance:    0.0456934
  band:
  - # 1
    frequency:    0.7531901365
  - # 2
    frequency:    0.7917828353
  - # 3
    frequency:    1.4539233858
  - # 4
    frequency:    2.3203883020
  - # 5
    frequency:    2.4928202748
  - # 6
    frequency:    4.1285743694

- q-position: [    0.1300000,    0.0650000,    0.1950000 ]
  distance:    0.0475212
  band:
  - # 1
    frequency:    0.7713389011
  - # 2
    frequency:    0.8132882580
  - # 3
    frequency:    1.5027894403
  - # 4
    frequency:    2.3558012293
  - # 5
    frequency:    2.5401860121
  - # 6
    frequency:    4.1475523096

- q-position: [    0.1350000,    0.0675000,    0.2025000 ]
  distance:    0.0493489
  band:
  - # 1
    frequency:    0.7887568976
  - # 2
    frequency:    0.8342994785
  - # 3
    frequency:    1.5507315965
  - # 4
    frequency:    2.3892425812
  - # 5
    frequency:    2.5859736003
  - # 6
    frequency:    4.1651346580

- q-position: [    0.1400000,    0.0700000,    0.2100000 ]
  distance:    0.0511766
  band:
  - # 1
    frequency:    0.8054858130
  - # 2
    frequency:    0.8548519890
  - # 3
    frequency:    1.5977227688
  - # 4
    frequency:    2.4206630946
  - # 5
    frequency:    2.6301442467
  - # 6
    frequency:    4.1812244894

- q-position: [    0.1450000,    0.0725000,    0.2175000 ]
  distance:    0.0530044
  band:
  - # 1
    frequency:    0.8215705176
  - # 2
    frequency:    0.8749828604
  - # 3
    frequency:    1.6437333169
  - # 4
    frequency:    2.4500313835
  - # 5
    frequency:    2.6726759420
  - # 6
    frequency:    4.1957379895

- q-position: [    0.1500000,    0.0750000,    0.2250000 ]
  distance:    0.0548321
  band:
  - # 1
    frequency:    0.8370588560
  - # 2
    frequency:    0.8947305702
  - # 3
    frequency:    1.6887308798
  - # 4
    frequency:    2.4773329101
  - # 5
    frequency:    2.7135620253
  - # 6
    frequency:    4.2086045914

- q-position: [    0.1550000,    0.0775000,    0.2325000 ]
  distance:    0.0566599
  band:
  - # 1
    frequency:    0.8520013384
  - # 2
    frequency:    0.9141347021
  - # 3
    frequency:    1.7326802778
  - # 4
    frequency:    2.5025689867
  - # 5
    frequency:    2.7528097700
  - # 6
    frequency:    4.2197670269

- q-position: [    0.1600000,    0.0800000,    0.2400000 ]
  distance:    0.0584876
  band:
  - # 1
    frequency:    0.8664507386
  - # 2
    frequency:    0.9332355265
  - # 3
    frequency:    1.7755434897
  - # 4
    frequency:    2.5257558010
  - # 5
    frequency:    2.7904389730
  - # 6
    frequency:    4.2291812992

- q-position: [    0.1650000,    0.0825000,    0.2475000 ]
  distance:    0.0603153
  band:
  - # 1
    frequency:    0.8804616028
  - # 2
    frequency:    0.9520734771
  - # 3
    frequency:    1.8172797090
  - # 4
    frequency:    2.5469234533
  - # 5
    frequency:    2.8264805360
  - # 6
    frequency:    4.2368165833

- q-position: [    0.1700000,    0.0850000,    0.2550000 ]
  distance:    0.0621431
  band:
  - # 1
    frequency:    0.8940896766
  - # 2
    frequency:    0.9706885351
  - # 3
    frequency:    1.8578454828
  - # 4
    frequency:    2.5661149967
  - # 5
    frequency:    2.8609750294
  - # 6
    frequency:    4.2426550606

- q-position: [    0.1750000,    0.0875000,    0.2625000 ]
  distance:    0.0639708
  band:
  - # 1
    frequency:    0.9073912593
  - # 2
    frequency:    0.9891195420
  - # 3
    frequency:    1.8971949374
  - # 4
    frequency:    2.5833854739
  - # 5
    frequency:    2.8939712320
  - # 6
    frequency:    4.2466916881

- q-position: [    0.1800000,    0.0900000,    0.2700000 ]
  distance:    0.0657985
  band:
  - # 1
    frequency:    0.9204224962
  - # 2
    frequency:    1.0074034567
  - # 3
    frequency:    1.9352800882
  - # 4
    frequency:    2.5988009421
  - # 5
    frequency:    2.9255246455
  - # 6
    frequency:    4.2489339078

- q-position: [    0.1850000,    0.0925000,    0.2775000 ]
  distance:    0.0676263
  band:
  - # 1
    frequency:    0.9332386217
  - # 2
    frequency:    1.0255745819
  - # 3
    frequency:    1.9720512320
  - # 4
    frequency:    2.6124374822
  - # 5
    frequency:    2.9556959874
  - # 6
    frequency:    4.2494012957

- q-position: [    0.1900000,    0.0950000,    0.2850000 ]
  distance:    0.0694540
  band:
  - # 1
    frequency:    0.9458931699
  - # 2
    frequency:    1.0436637800
  - # 3
    frequency:    2.0074574175
  - # 4
    frequency:    2.6243801866
  - # 5
    frequency:    2.9845496691
  - # 6
    frequency:    4.2481251515

- q-position: [    0.1950000,    0.0975000,    0.2925000 ]
  distance:    0.0712818
  band:
  - # 1
    frequency:    0.9584371672
  - # 2
    frequency:    1.0616977040
  - # 3
    frequency:    2.0414469825
  - # 4
    frequency:    2.6347221243
  - # 5
    frequency:    3.0121522736
  - # 6
    frequency:    4.2451480269

- q-position: [    0.2000000,    0.1000000,    0.3000000 ]
  distance:    0.0731095
  band:
  - # 1
    frequency:    0.9709183300
  - # 2
    frequency:    1.0796980679
  - # 3
    frequency:    2.0739681482
  - # 4
    frequency:    2.6435632805
  - # 5
    frequency:    3.0385710513
  - # 6
    frequency:    4.2405231905

- q-position: [    0.2050000,    0.1025000,    0.3075000 ]
  distance:    0.0749372
  band:
  - # 1
    frequency:    0.9833802837
  - # 2
    frequency:    1.0976809791
  - # 3
    frequency:    2.1049696541
  - # 4
    frequency:    2.6510094709
  - # 5
    frequency:    3.0638724575
  - # 6
    frequency:    4.2343140278

- q-position: [    0.2100000,    0.1050000,    0.3150000 ]
  distance:    0.0767650
  band:
  - # 1
    frequency:    0.9958618271
  - # 2
    frequency:    1.1156563567
  - # 3
    frequency:    2.1344014171
  - # 4
    frequency:    2.6571712324
  - # 5
    frequency:    3.0881207572
  - # 6
    frequency:    4.2265933703

- q-position: [    0.2150000,    0.1075000,    0.3225000 ]
  distance:    0.0785927
  band:
  - # 1
    frequency:    1.0083962630
  - # 2
    frequency:    1.1336274549
  - # 3
    frequency:    2.1622151977
  - # 4
    frequency:    2.6621626918
  - # 5
    frequency:    3.1113767271
  - # 6
    frequency:    4.2174427526

- q-position: [    0.2200000,    0.1100000,    0.3300000 ]
  distance:    0.0804204
  band:
  - # 1
    frequency:    1.0210108137
  - # 2
    frequency:    1.1515905091
  - # 3
    frequency:    2.1883652563
  - # 4
    frequency:    2.6661004175
  - # 5
    frequency:    3.1336964815
  - # 6
    frequency:    4.2069515929

- q-position: [    0.2250000,    0.1125000,    0.3375000 ]
  distance:    0.0822482
  band:
  - # 1
    frequency:    1.0337261428
  - # 2
    frequency:    1.1695345167
  - # 3
    frequency:    2.2128089854
  - # 4
    frequency:    2.6691022595
  - # 5
    frequency:    3.1551304452
  - # 6
    frequency:    4.1952162979

- q-position: [    0.2300000,    0.1150000,    0.3450000 ]
  distance:    0.0840759
  band:
  - # 1
    frequency:    1.0465559967
  - # 2
    frequency:    1.1874411625
  - # 3
    frequency:    2.2355075117
  - # 4
    frequency:    2.6712861835
  - # 5
    frequency:    3.1757224917
  - # 6
    frequency:    4.1823392920

- q-position: [    0.2350000,    0.1175000,    0.3525000 ]
  distance:    0.0859037
  band:
  - # 1
    frequency:    1.0595069817
  - # 2
    frequency:    1.2052848917
  - # 3
    frequency:    2.2564262636
  - # 4
    frequency:    2.6727691096
  - # 5
    frequency:    3.1955092504
  - # 6
    frequency:    4.1684279779

- q-position: [    0.2400000,    0.1200000,    0.3600000 ]
  distance:    0.0877314
  band:
  - # 1
    frequency:    1.0725784829
  - # 2
    frequency:    1.2230331303
  - # 3
    frequency:    2.2755355146
  - # 4
    frequency:    2.6736657633
  - # 5
    frequency:    3.2145195753
  - # 6
    frequency:    4.1535936419

- q-position: [    0.2450000,    0.1225000,    0.3675000 ]
  distance:    0.0895591
  band:
  - # 1
    frequency:    1.0857627319
  - # 2
    frequency:    1.2406466465
  - # 3
    frequency:    2.2928109123
  - # 4
    frequency:    2.6740875518
  - # 5
    frequency:    3.2327741525
  - # 6
    frequency:    4.1379503235

- q-position: [    0.2500000,    0.1250000,    0.3750000 ]
  distance:    0.0913869
  band:
  - # 1
    frequency:    1.0990450211
  - # 2
    frequency:    1.2580800442
  - # 3
    frequency:    2.3082340172
  - # 4
    frequency:    2.6741414764
  - # 5
    frequency:    3.2502852059
  - # 6
    frequency:    4.1216136807

- q-position: [    0.2550000,    0.1275000,    0.3825000 ]
  distance:    0.0932146
  band:
  - # 1
    frequency:    1.1124040617
  - # 2
    frequency:    1.2752823750
  - # 3
    frequency:    2.3217928708
  - # 4
    frequency:    2.6739290958
  - # 5
    frequency:    3.2670562451
  - # 6
    frequency:    4.1046998946

- q-position: [    0.2600000,    0.1300000,    0.3900000 ]
  distance:    0.0950423
  band:
  - # 1
    frequency:    1.1258124745
  - # 2
    frequency:    1.2921978522
  - # 3
    frequency:    2.3334826156
  - # 4
    frequency:    2.6735455543
  - # 5
    frequency:    3.2830817921
  - # 6
    frequency:    4.0873246676

- q-position: [    0.2650000,    0.1325000,    0.3975000 ]
  distance:    0.0968701
  band:
  - # 1
    frequency:    1.1392374011
  - # 2
    frequency:    1.3087666505
  - # 3
    frequency:    2.3433061788
  - # 4
    frequency:    2.6730786894
  - # 5
    frequency:    3.2983470094
  - # 6
    frequency:    4.0696023836

- q-position: [    0.2700000,    0.1350000,    0.4050000 ]
  distance:    0.0986978
  band:
  - # 1
    frequency:    1.1526412178
  - # 2
    frequency:    1.3249257721
  - # 3
    frequency:    2.3512750209
  - # 4
    frequency:    2.6726082349
  - # 5
    frequency:    3.3128271610
  - # 6
    frequency:    4.0516455088

- q-position: [    0.2750000,    0.1375000,    0.4125000 ]
  distance:    0.1005256
  band:
  - # 1
    frequency:    1.1659823318
  - # 2
    frequency:    1.3406099611
  - # 3
    frequency:    2.3574099322
  - # 4
    frequency:    2.6722051338
  - # 5
    frequency:    3.3264868411
  - # 6
    frequency:    4.0335643132

- q-position: [    0.2800000,    0.1400000,    0.4200000 ]
  distance:    0.1023533
  band:
  - # 1
    frequency:    1.1792160388
  - # 2
    frequency:    1.3557526521
  - # 3
    frequency:    2.3617418411
  - # 4
    frequency:    2.6719309766
  - # 5
    frequency:    3.3392789317
  - # 6
    frequency:    4.0154669909

- q-position: [    0.2850000,    0.1425000,    0.4275000 ]
  distance:    0.1041810
  band:
  - # 1
    frequency:    1.1922954173
  - # 2
    frequency:    1.3702869358
  - # 3
    frequency:    2.3643125805
  - # 4
    frequency:    2.6718375758
  - # 5
    frequency:    3.3511432814
  - # 6
    frequency:    3.9974602344

- q-position: [    0.2900000,    0.1450000,    0.4350000 ]
  distance:    0.1060088
  band:
  - # 1
    frequency:    1.2051722369
  - # 2
    frequency:    1.3841465340
  - # 3
    frequency:    2.3651755410
  - # 4
    frequency:    2.6719666907
  - # 5
    frequency:    3.3620051537
  - # 6
    frequency:    3.9796502778

- q-position: [    0.2950000,    0.1475000,    0.4425000 ]
  distance:    0.1078365
  band:
  - # 1
    frequency:    1.2177978572
  - # 2
    frequency:    1.3972667738
  - # 3
    frequency:    2.3643961335
  - # 4
    frequency:    2.6723499090
  - # 5
    frequency:    3.3717735653
  - # 6
    frequency:    3.9621443546

- q-position: [    0.3000000,    0.1500000,    0.4500000 ]
  distance:    0.1096642
  band:
  - # 1
    frequency:    1.2301240966
  - # 2
    frequency:    1.4095855594
  - # 3
    frequency:    2.3620519823
  - # 4
    frequency:    2.6730086915
  - # 5
    frequency:    3.3803397364
  - # 6
    frequency:    3.9450524091

- q-position: [    0.3050000,    0.1525000,    0.4575000 ]
  distance:    0.1114920
  band:
  - # 1
    frequency:    1.2421040507
  - # 2
    frequency:    1.4210443368
  - # 3
    frequency:    2.3582327804
  - # 4
    frequency:    2.6739545821
  - # 5
    frequency:    3.3875760069
  - # 6
    frequency:    3.9284887594

- q-position: [    0.3100000,    0.1550000,    0.4650000 ]
  distance:    0.1133197
  band:
  - # 1
    frequency:    1.2536928460
  - # 2
    frequency:    1.4315890556
  - # 3
    frequency:    2.3530397547
  - # 4
    frequency:    2.6751895803
  - # 5
    frequency:    3.3933357216
  - # 6
    frequency:    3.9125732367

- q-position: [    0.3150000,    0.1575000,    0.4725000 ]
  distance:    0.1151475
  band:
  - # 1
    frequency:    1.2648483147
  - # 2
    frequency:    1.4411711258
  - # 3
    frequency:    2.3465847183
  - # 4
    frequency:    2.6767066705
  - # 5
    frequency:    3.3974547419
  - # 6
    frequency:    3.8974311478

- q-position: [    0.3200000,    0.1600000,    0.4800000 ]
  distance:    0.1169752
  band:
  - # 1
    frequency:    1.2755315833
  - # 2
    frequency:    1.4497483709
  - # 3
    frequency:    2.3389887114
  - # 4
    frequency:    2.6784904956
  - # 5
    frequency:    3.3997553224
  - # 6
    frequency:    3.8831913006

- q-position: [    0.3250000,    0.1625000,    0.4875000 ]
  distance:    0.1188029
  band:
  - # 1
    frequency:    1.2857075696
  - # 2
    frequency:    1.4572859721
  - # 3
    frequency:    2.3303802687
  - # 4
    frequency:    2.6805181619
  - # 5
    frequency:    3.4000530053
  - # 6
    frequency:    3.8699813859

- q-position: [    0.3300000,    0.1650000,    0.4950000 ]
  distance:    0.1206307
  band:
  - # 1
    frequency:    1.2953453871
  - # 2
    frequency:    1.4637573927
  - # 3
    frequency:    2.3208933730
  - # 4
    frequency:    2.6827601547
  - # 5
    frequency:    3.3981668057
  - # 6
    frequency:    3.8579203738

- q-position: [    0.3350000,    0.1675000,    0.5025000 ]
  distance:    0.1224584
  band:
  - # 1
    frequency:    1.3044186596
  - # 2
    frequency:    1.4691452659
  - # 3
    frequency:    2.3106651847
  - # 4
    frequency:    2.6851813434
  - # 5
    frequency:    3.3939322054
  - # 6
    frequency:    3.8471083190

- q-position: [    0.3400000,    0.1700000,    0.5100000 ]
  distance:    0.1242861
  band:
  - # 1
    frequency:    1.3129057504
  - # 2
    frequency:    1.4734422144
  - # 3
    frequency:    2.2998336484
  - # 4
    frequency:    2.6877420517
  - # 5
    frequency:    3.3872154494
  - # 6
    frequency:    3.8376149868

- q-position: [    0.3450000,    0.1725000,    0.5175000 ]
  distance:    0.1261139
  band:
  - # 1
    frequency:    1.3207899139
  - # 2
    frequency:    1.4766515656
  - # 3
    frequency:    2.2885350932
  - # 4
    frequency:    2.6903991674
  - # 5
    frequency:    3.3779267145
  - # 6
    frequency:    3.8294696388

- q-position: [    0.3500000,    0.1750000,    0.5250000 ]
  distance:    0.1279416
  band:
  - # 1
    frequency:    1.3280593784
  - # 2
    frequency:    1.4787879129
  - # 3
    frequency:    2.2769019416
  - # 4
    frequency:    2.6931072660
  - # 5
    frequency:    3.3660294265
  - # 6
    frequency:    3.8226546138

- q-position: [    0.3550000,    0.1775000,    0.5325000 ]
  distance:    0.1297694
  band:
  - # 1
    frequency:    1.3347073676
  - # 2
    frequency:    1.4798774699
  - # 3
    frequency:    2.2650606398
  - # 4
    frequency:    2.6958197227
  - # 5
    frequency:    3.3515437299
  - # 6
    frequency:    3.8171046274

- q-position: [    0.3600000,    0.1800000,    0.5400000 ]
  distance:    0.1315971
  band:
  - # 1
    frequency:    1.3407320723
  - # 2
    frequency:    1.4799581625
  - # 3
    frequency:    2.2531299070
  - # 4
    frequency:    2.6984897894
  - # 5
    frequency:    3.3345436831
  - # 6
    frequency:    3.8127121565

- q-position: [    0.3650000,    0.1825000,    0.5475000 ]
  distance:    0.1334248
  band:
  - # 1
    frequency:    1.3461365779
  - # 2
    frequency:    1.4790794087
  - # 3
    frequency:    2.2412193847
  - # 4
    frequency:    2.7010716142
  - # 5
    frequency:    3.3151494721
  - # 6
    frequency:    3.8093375697

- q-position: [    0.3700000,    0.1850000,    0.5550000 ]
  distance:    0.1352526
  band:
  - # 1
    frequency:    1.3509287559
  - # 2
    frequency:    1.4773015520
  - # 3
    frequency:    2.2294287356
  - # 4
    frequency:    2.7035211868
  - # 5
    frequency:    3.2935170075
  - # 6
    frequency:    3.8068216097

- q-position: [    0.3750000,    0.1875000,    0.5625000 ]
  distance:    0.1370803
  band:
  - # 1
    frequency:    1.3551211247
  - # 2
    frequency:    1.4746949291
  - # 3
    frequency:    2.2178472141
  - # 4
    frequency:    2.7057971922
  - # 5
    frequency:    3.2698273492
  - # 6
    frequency:    3.8049977637

- q-position: [    0.3800000,    0.1900000,    0.5700000 ]
  distance:    0.1389080
  band:
  - # 1
    frequency:    1.3587306826
  - # 2
    frequency:    1.4713385828
  - # 3
    frequency:    2.2065536928
  - # 4
    frequency:    2.7078617618
  - # 5
    frequency:    3.2442777210
  - # 6
    frequency:    3.8037027519

- q-position: [    0.3850000,    0.1925000,    0.5775000 ]
  distance:    0.1407358
  band:
  - # 1
    frequency:    1.3617787159
  - # 2
    frequency:    1.4673186538
  - # 3
    frequency:    2.1956170966
  - # 4
    frequency:    2.7096811120
  - # 5
    frequency:    3.2170749392
  - # 6
    frequency:    3.8027843106

- q-position: [    0.3900000,    0.1950000,    0.5850000 ]
  distance:    0.1425635
  band:
  - # 1
    frequency:    1.3642905813
  - # 2
    frequency:    1.4627265138
  - # 3
    frequency:    2.1850971627
  - # 4
    frequency:    2.7112260665
  - # 5
    frequency:    3.1884312947
  - # 6
    frequency:    3.8021062357

- q-position: [    0.3950000,    0.1975000,    0.5925000 ]
  distance:    0.1443913
  band:
  - # 1
    frequency:    1.3662954633
  - # 2
    frequency:    1.4576567217
  - # 3
    frequency:    2.1750454231
  - # 4
    frequency:    2.7124724569
  - # 5
    frequency:    3.1585624742
  - # 6
    frequency:    3.8015511119

- q-position: [    0.4000000,    0.2000000,    0.6000000 ]
  distance:    0.1462190
  band:
  - # 1
    frequency:    1.3678261031
  - # 2
    frequency:    1.4522048985
  - # 3
    frequency:    2.1655062868
  - # 4
    frequency:    2.7134014042
  - # 5
    frequency:    3.1276869460
  - # 6
    frequency:    3.8010213118

- q-position: [    0.4050000,    0.2025000,    0.6075000 ]
  distance:    0.1480467
  band:
  - # 1
    frequency:    1.3689184970
  - # 2
    frequency:    1.4464656227
  - # 3
    frequency:    2.1565180981
  - # 4
    frequency:    2.7139994819
  - # 5
    frequency:    3.0960262672
  - # 6
    frequency:    3.8004388242

- q-position: [    0.4100000,    0.2050000,    0.6150000 ]
  distance:    0.1498745
  band:
  - # 1
    frequency:    1.3696115626
  - # 2
    frequency:    1.4405304436
  - # 3
    frequency:    2.1481140455
  - # 4
    frequency:    2.7142587645
  - # 5
    frequency:    3.0638058782
  - # 6
    frequency:    3.7997443563

- q-position: [    0.4150000,    0.2075000,    0.6225000 ]
  distance:    0.1517022
  band:
  - # 1
    frequency:    1.3699467688
  - # 2
    frequency:    1.4344860995
  - # 3
    frequency:    2.1403228125
  - # 4
    frequency:    2.7141767691
  - # 5
    frequency:    3.0312560797
  - # 6
    frequency:    3.7988960294

- q-position: [    0.4200000,    0.2100000,    0.6300000 ]
  distance:    0.1535299
  band:
  - # 1
    frequency:    1.3699677282
  - # 2
    frequency:    1.4284130132
  - # 3
    frequency:    2.1331688778
  - # 4
    frequency:    2.7137562956
  - # 5
    frequency:    2.9986129925
  - # 6
    frequency:    3.7978678752

- q-position: [    0.4250000,    0.2125000,    0.6375000 ]
  distance:    0.1553577
  band:
  - # 1
    frequency:    1.3697197509
  - # 2
    frequency:    1.4223841176
  - # 3
    frequency:    2.1266723984
  - # 4
    frequency:    2.7130051744
  - # 5
    frequency:    2.9661193825
  - # 6
    frequency:    3.7966482600

- q-position: [    0.4300000,    0.2150000,    0.6450000 ]
  distance:    0.1571854
  band:
  - # 1
    frequency:    1.3692493599
  - # 2
    frequency:    1.4164640444
  - # 3
    frequency:    2.1208486390
  - # 4
    frequency:    2.7119359304
  - # 5
    frequency:    2.9340252764
  - # 6
    frequency:    3.7952383062

- q-position: [    0.4350000,    0.2175000,    0.6525000 ]
  distance:    0.1590132
  band:
  - # 1
    frequency:    1.3686037696
  - # 2
    frequency:    1.4107086907
  - # 3
    frequency:    2.1157069469
  - # 4
    frequency:    2.7105653739
  - # 5
    frequency:    2.9025883223
  - # 6
    frequency:    3.7936503469

- q-position: [    0.4400000,    0.2200000,    0.6600000 ]
  distance:    0.1608409
  band:
  - # 1
    frequency:    1.3678303312
  - # 2
    frequency:    1.4051651581
  - # 3
    frequency:    2.1112493158
  - # 4
    frequency:    2.7089141276
  - # 5
    frequency:    2.8720738473
  - # 6
    frequency:    3.7919064265

- q-position: [    0.4450000,    0.2225000,    0.6675000 ]
  distance:    0.1626686
  band:
  - # 1
    frequency:    1.3669759500
  - # 2
    frequency:    1.3998720441
  - # 3
    frequency:    2.1074686389
  - # 4
    frequency:    2.7070061011
  - # 5
    frequency:    2.8427545444
  - # 6
    frequency:    3.7900368506

- q-position: [    0.4500000,    0.2250000,    0.6750000 ]
  distance:    0.1644964
  band:
  - # 1
    frequency:    1.3660864827
  - # 2
    frequency:    1.3948600468
  - # 3
    frequency:    2.1043468181
  - # 4
    frequency:    2.7048679240
  - # 5
    frequency:    2.8149096856
  - # 6
    frequency:    3.7880787842

- q-position: [    0.4550000,    0.2275000,    0.6825000 ]
  distance:    0.1663241
  band:
  - # 1
    frequency:    1.3652061235
  - # 2
    frequency:    1.3901528349
  - # 3