14.400
  26.40268   0.00000   0.00000   0.00000  26.40268   0.00000   0.00000   0.00000  26.40268
   4.72848   0.00000   0.00000   0.00000   4.72848   0.00000   0.00000   0.00000   4.72848
  -4.72576   0.00000   0.00000   0.00000  -4.72576   0.00000   0.00000   0.00000  -4.72576
