128  
2    

1    
  0.0000000000000000   0.0070710678118655   0.0070710678118655
  -0.0000000000   -0.0213574000   -0.0213574000
  -0.0000000000    0.0041095000    0.0041095000
  -0.0000000000    0.0007627500    0.0007627500
  -0.0000000000    0.0040681400    0.0040681400
   0.0037663300   -0.0003817900    0.0003274400
   0.0002499300    0.0001779900    0.0004420500
  -0.0002481700    0.0004403900    0.0001782900
  -0.0037512500    0.0003335000   -0.0003769300
   0.0004215700   -0.0000663000    0.0003397400
  -0.0000001700   -0.0000702000   -0.0000700100
  -0.0004215700    0.0003397400   -0.0000663000
   0.0000001700   -0.0000700100   -0.0000702000
   0.0037512500   -0.0003769300    0.0003335000
  -0.0037663300    0.0003274400   -0.0003817900
  -0.0002499300    0.0004420500    0.0001779900
   0.0002481700    0.0001782900    0.0004403900
   0.0037663300    0.0003274400   -0.0003817900
   0.0002499300    0.0004420500    0.0001779900
  -0.0002481700    0.0001782900    0.0004403900
  -0.0037512500   -0.0003769300    0.0003335000
   0.0003194700    0.0001085700    0.0001085700
  -0.0000015600    0.0001365200    0.0001365200
  -0.0003175400    0.0001090400    0.0001090400
  -0.0000116000    0.0002209100    0.0002209100
   0.0000691900   -0.0001408900    0.0001225100
  -0.0000704700    0.0001229400   -0.0001379400
  -0.0004185500    0.0002745000   -0.0000778200
   0.0004244100   -0.0000777800    0.0002700600
  -0.0000000000   -0.0034274100   -0.0034301500
  -0.0000000000    0.0045739400    0.0002228700
  -0.0000000000    0.0006981900    0.0006905200
  -0.0000000000    0.0002183100    0.0045792000
   0.0004215700    0.0003397400   -0.0000663000
  -0.0000001700   -0.0000700100   -0.0000702000
  -0.0004215700   -0.0000663000    0.0003397400
   0.0000001700   -0.0000702000   -0.0000700100
   0.0000691900    0.0001225100   -0.0001408900
  -0.0000704700   -0.0001379400    0.0001229400
  -0.0004185500   -0.0000778200    0.0002745000
   0.0004244100    0.0002700600   -0.0000777800
  -0.0000000000   -0.0000827500   -0.0000827500
  -0.0000000000   -0.0001450900   -0.0001450900
  -0.0000000000    0.0009552400    0.0009552400
  -0.0000000000   -0.0001523900   -0.0001523900
   0.0000704700    0.0001229400   -0.0001379400
   0.0004185500    0.0002745000   -0.0000778200
  -0.0004244100   -0.0000777800    0.0002700600
  -0.0000691900   -0.0001408900    0.0001225100
   0.0037512500    0.0003335000   -0.0003769300
  -0.0037663300   -0.0003817900    0.0003274400
  -0.0002499300    0.0001779900    0.0004420500
   0.0002481700    0.0004403900    0.0001782900
  -0.0000000000   -0.0034301500   -0.0034274100
  -0.0000000000    0.0002228700    0.0045739400
  -0.0000000000    0.0006905200    0.0006981900
  -0.0000000000    0.0045792000    0.0002183100
   0.0000704700   -0.0001379400    0.0001229400
   0.0004185500   -0.0000778200    0.0002745000
  -0.0004244100    0.0002700600   -0.0000777800
  -0.0000691900    0.0001225100   -0.0001408900
   0.0003175400    0.0001090400    0.0001090400
   0.0000116000    0.0002209100    0.0002209100
  -0.0003194700    0.0001085700    0.0001085700
   0.0000015600    0.0001365200    0.0001365200
  -0.0006329100   -0.0003529500   -0.0003529500
   0.0000004700   -0.0002338800   -0.0002338800
   0.0006289300   -0.0003512100   -0.0003512100
  -0.0000097000    0.0011934000    0.0011934000
  -0.0001112100   -0.0000378300   -0.0001235000
   0.0001110100   -0.0001234700   -0.0000382600
   0.0008559500   -0.0001673900    0.0000551800
  -0.0008613500    0.0000551800   -0.0001645300
   0.0000015500    0.0002780400    0.0002787300
   0.0005866800   -0.0003792300    0.0000547100
  -0.0000003500   -0.0001726400   -0.0001713700
  -0.0005894200    0.0000560100   -0.0003807700
  -0.0000000000    0.0050443600    0.0011904600
  -0.0000000000   -0.0012410900   -0.0007532000
  -0.0000000000   -0.0007542200   -0.0012356300
  -0.0000000000    0.0011960600    0.0047047300
  -0.0001112100   -0.0001235000   -0.0000378300
   0.0001110100   -0.0000382600   -0.0001234700
   0.0008559500    0.0000551800   -0.0001673900
  -0.0008613500   -0.0001645300    0.0000551800
   0.0000007100   -0.0000131300   -0.0000131300
   0.0001029800   -0.0000694800   -0.0000694800
   0.0000038800   -0.0002360700   -0.0002360700
  -0.0001031500   -0.0000686800   -0.0000686800
  -0.0000000000    0.0004746400    0.0004202300
  -0.0000000000   -0.0019715400   -0.0002370600
  -0.0000000000   -0.0002354400   -0.0019750800
  -0.0000000000    0.0004242200    0.0004817900
  -0.0005866800   -0.0003792300    0.0000547100
   0.0000003500   -0.0001726400   -0.0001713700
   0.0005894200    0.0000560100   -0.0003807700
  -0.0000015500    0.0002780400    0.0002787300
   0.0000015500    0.0002787300    0.0002780400
   0.0005866800    0.0000547100   -0.0003792300
  -0.0000003500   -0.0001713700   -0.0001726400
  -0.0005894200   -0.0003807700    0.0000560100
  -0.0000000000    0.0004202300    0.0004746400
  -0.0000000000   -0.0002370600   -0.0019715400
  -0.0000000000   -0.0019750800   -0.0002354400
  -0.0000000000    0.0004817900    0.0004242200
  -0.0001029800   -0.0000694800   -0.0000694800
  -0.0000038800   -0.0002360700   -0.0002360700
   0.0001031500   -0.0000686800   -0.0000686800
  -0.0000007100   -0.0000131300   -0.0000131300
  -0.0008559500   -0.0001673900    0.0000551800
   0.0008613500    0.0000551800   -0.0001645300
   0.0001112100   -0.0000378300   -0.0001235000
  -0.0001110100   -0.0001234700   -0.0000382600
  -0.0000000000    0.0011904600    0.0050443600
  -0.0000000000   -0.0007532000   -0.0012410900
  -0.0000000000   -0.0012356300   -0.0007542200
  -0.0000000000    0.0047047300    0.0011960600
  -0.0005866800    0.0000547100   -0.0003792300
   0.0000003500   -0.0001713700   -0.0001726400
   0.0005894200   -0.0003807700    0.0000560100
  -0.0000015500    0.0002787300    0.0002780400
  -0.0008559500    0.0000551800   -0.0001673900
   0.0008613500   -0.0001645300    0.0000551800
   0.0001112100   -0.0001235000   -0.0000378300
  -0.0001110100   -0.0000382600   -0.0001234700
   0.0000097000    0.0011934000    0.0011934000
   0.0006329100   -0.0003529500   -0.0003529500
  -0.0000004700   -0.0002338800   -0.0002338800
  -0.0006289300   -0.0003512100   -0.0003512100

65   
  0.0000000000000000   0.0070710678118655   0.0070710678118655
  -0.0006286700   -0.0003540700   -0.0003540700
  -0.0000044300    0.0011934300    0.0011934300
   0.0006333600   -0.0003527500   -0.0003527500
   0.0000008300   -0.0002343000   -0.0002343000
  -0.0000000000    0.0047117100    0.0012081100
  -0.0000000000    0.0011780700    0.0050359200
  -0.0000000000   -0.0010236200   -0.0009725900
  -0.0000000000   -0.0009663600   -0.0010228500
   0.0000001700    0.0002763700    0.0002787300
  -0.0008586500    0.0000557500   -0.0003800600
  -0.0000014200   -0.0001718400   -0.0001733500
   0.0008577300   -0.0003808600    0.0000560000
  -0.0001104600   -0.0000383200   -0.0001237400
  -0.0005880100    0.0000563500   -0.0001681600
   0.0005897800   -0.0001619800    0.0000555200
   0.0001106200   -0.0001238500   -0.0000378500
  -0.0000000000    0.0012081100    0.0047117100
  -0.0000000000    0.0050359200    0.0011780700
  -0.0000000000   -0.0009725900   -0.0010236200
  -0.0000000000   -0.0010228500   -0.0009663600
   0.0000044300    0.0011934300    0.0011934300
  -0.0006333600   -0.0003527500   -0.0003527500
  -0.0000008300   -0.0002343000   -0.0002343000
   0.0006286700   -0.0003540700   -0.0003540700
  -0.0005897800    0.0000555200   -0.0001619800
  -0.0001106200   -0.0000378500   -0.0001238500
   0.0001104600   -0.0001237400   -0.0000383200
   0.0005880100   -0.0001681600    0.0000563500
  -0.0008577300    0.0000560000   -0.0003808600
  -0.0000001700    0.0002787300    0.0002763700
   0.0008586500   -0.0003800600    0.0000557500
   0.0000014200   -0.0001733500   -0.0001718400
   0.0000001700    0.0002787300    0.0002763700
  -0.0008586500   -0.0003800600    0.0000557500
  -0.0000014200   -0.0001733500   -0.0001718400
   0.0008577300    0.0000560000   -0.0003808600
  -0.0005897800   -0.0001619800    0.0000555200
  -0.0001106200   -0.0001238500   -0.0000378500
   0.0001104600   -0.0000383200   -0.0001237400
   0.0005880100    0.0000563500   -0.0001681600
  -0.0001028000   -0.0000685400   -0.0000685400
   0.0000004000   -0.0000131500   -0.0000131500
   0.0001045300   -0.0000695200   -0.0000695200
   0.0000060800   -0.0002357800   -0.0002357800
  -0.0000000000    0.0006926500    0.0002083700
  -0.0000000000    0.0002086600    0.0006934500
  -0.0000000000   -0.0019778900   -0.0002352200
  -0.0000000000   -0.0002364000   -0.0019691200
  -0.0001104600   -0.0001237400   -0.0000383200
  -0.0005880100   -0.0001681600    0.0000563500
   0.0005897800    0.0000555200   -0.0001619800
   0.0001106200   -0.0000378500   -0.0001238500
  -0.0008577300   -0.0003808600    0.0000560000
  -0.0000001700    0.0002763700    0.0002787300
   0.0008586500    0.0000557500   -0.0003800600
   0.0000014200   -0.0001718400   -0.0001733500
  -0.0000000000    0.0002083700    0.0006926500
  -0.0000000000    0.0006934500    0.0002086600
  -0.0000000000   -0.0002352200   -0.0019778900
  -0.0000000000   -0.0019691200   -0.0002364000
  -0.0000004000   -0.0000131500   -0.0000131500
  -0.0001045300   -0.0000695200   -0.0000695200
  -0.0000060800   -0.0002357800   -0.0002357800
   0.0001028000   -0.0000685400   -0.0000685400
  -0.0000000000   -0.0248518600   -0.0248518600
  -0.0000000000    0.0016017000    0.0016017000
  -0.0000000000    0.0004599000    0.0004599000
  -0.0000000000    0.0015692200    0.0015692200
   0.0014375400   -0.0000543800    0.0001503700
   0.0001923000    0.0001391600    0.0002924300
  -0.0001903400    0.0002927900    0.0001397600
  -0.0014317300    0.0001504400   -0.0000528000
   0.0002902300    0.0000447200    0.0001694300
   0.0000007000   -0.0000523900   -0.0000513300
  -0.0002902300    0.0001694300    0.0000447200
  -0.0000007000   -0.0000513300   -0.0000523900
   0.0014317300   -0.0000528000    0.0001504400
  -0.0014375400    0.0001503700   -0.0000543800
  -0.0001923000    0.0002924300    0.0001391600
   0.0001903400    0.0001397600    0.0002927900
   0.0014375400    0.0001503700   -0.0000543800
   0.0001923000    0.0002924300    0.0001391600
  -0.0001903400    0.0001397600    0.0002927900
  -0.0014317300   -0.0000528000    0.0001504400
   0.0002428100    0.0000888100    0.0000888100
   0.0000003600    0.0001419800    0.0001419800
  -0.0002416400    0.0000886300    0.0000886300
  -0.0000206500    0.0003554600    0.0003554600
   0.0000505300   -0.0001027300    0.0000509900
  -0.0000508500    0.0000497700   -0.0001025300
  -0.0004266900    0.0004608600    0.0001595800
   0.0004249500    0.0001604900    0.0004598500
  -0.0000000000   -0.0012847900   -0.0012835300
  -0.0000000000    0.0053282100    0.0003585300
  -0.0000000000    0.0008878400    0.0008844100
  -0.0000000000    0.0003523500    0.0053128900
   0.0002902300    0.0001694300    0.0000447200
   0.0000007000   -0.0000513300   -0.0000523900
  -0.0002902300    0.0000447200    0.0001694300
  -0.0000007000   -0.0000523900   -0.0000513300
   0.0000505300    0.0000509900   -0.0001027300
  -0.0000508500   -0.0001025300    0.0000497700
  -0.0004266900    0.0001595800    0.0004608600
   0.0004249500    0.0004598500    0.0001604900
  -0.0000000000   -0.0001206800   -0.0001206800
  -0.0000000000    0.0000337400    0.0000337400
  -0.0000000000    0.0014571600    0.0014571600
  -0.0000000000    0.0000352600    0.0000352600
   0.0000508500    0.0000497700   -0.0001025300
   0.0004266900    0.0004608600    0.0001595800
  -0.0004249500    0.0001604900    0.0004598500
  -0.0000505300   -0.0001027300    0.0000509900
   0.0014317300    0.0001504400   -0.0000528000
  -0.0014375400   -0.0000543800    0.0001503700
  -0.0001923000    0.0001391600    0.0002924300
   0.0001903400    0.0002927900    0.0001397600
  -0.0000000000   -0.0012835300   -0.0012847900
  -0.0000000000    0.0003585300    0.0053282100
  -0.0000000000    0.0008844100    0.0008878400
  -0.0000000000    0.0053128900    0.0003523500
   0.0000508500   -0.0001025300    0.0000497700
   0.0004266900    0.0001595800    0.0004608600
  -0.0004249500    0.0004598500    0.0001604900
  -0.0000505300    0.0000509900   -0.0001027300
   0.0002416400    0.0000886300    0.0000886300
   0.0000206500    0.0003554600    0.0003554600
  -0.0002428100    0.0000888100    0.0000888100
  -0.0000003600    0.0001419800    0.0001419800
