mesh: [    48,    48,    48 ]
nqpoint: 2769   
natom:   2      
phonon:
- q-position: [    0.0000000,    0.0000000,    0.0000000 ]
  weight: 1    
  band:
  - # 1
    frequency:    -0.0016577108
  - # 2
    frequency:    -0.0016577108
  - # 3
    frequency:    -0.0016577108
  - # 4
    frequency:     1.4129992936
  - # 5
    frequency:     1.4129992936
  - # 6
    frequency:     1.4129992936

- q-position: [    0.0208333,    0.0000000,    0.0000000 ]
  weight: 8    
  band:
  - # 1
    frequency:     0.1351557015
  - # 2
    frequency:     0.1351557015
  - # 3
    frequency:     0.1995590598
  - # 4
    frequency:     1.4454197116
  - # 5
    frequency:     1.4454197116
  - # 6
    frequency:     3.6762096067

- q-position: [    0.0416667,    0.0000000,    0.0000000 ]
  weight: 8    
  band:
  - # 1
    frequency:     0.2637597861
  - # 2
    frequency:     0.2637597861
  - # 3
    frequency:     0.3969018604
  - # 4
    frequency:     1.5382120322
  - # 5
    frequency:     1.5382120322
  - # 6
    frequency:     3.7082264868

- q-position: [    0.0625000,    0.0000000,    0.0000000 ]
  weight: 8    
  band:
  - # 1
    frequency:     0.3826570914
  - # 2
    frequency:     0.3826570914
  - # 3
    frequency:     0.5899217106
  - # 4
    frequency:     1.6795641656
  - # 5
    frequency:     1.6795641656
  - # 6
    frequency:     3.7596585976

- q-position: [    0.0833333,    0.0000000,    0.0000000 ]
  weight: 8    
  band:
  - # 1
    frequency:     0.4922713463
  - # 2
    frequency:     0.4922713463
  - # 3
    frequency:     0.7767743712
  - # 4
    frequency:     1.8543057501
  - # 5
    frequency:     1.8543057501
  - # 6
    frequency:     3.8277875173

- q-position: [    0.1041667,    0.0000000,    0.0000000 ]
  weight: 8    
  band:
  - # 1
    frequency:     0.5945239036
  - # 2
    frequency:     0.5945239036
  - # 3
    frequency:     0.9559514700
  - # 4
    frequency:     2.0479045155
  - # 5
    frequency:     2.0479045155
  - # 6
    frequency:     3.9091271550

- q-position: [    0.1250000,    0.0000000,    0.0000000 ]
  weight: 8    
  band:
  - # 1
    frequency:     0.6912023861
  - # 2
    frequency:     0.6912023861
  - # 3
    frequency:     1.1263392507
  - # 4
    frequency:     2.2485273567
  - # 5
    frequency:     2.2485273567
  - # 6
    frequency:     3.9996799227

- q-position: [    0.1458333,    0.0000000,    0.0000000 ]
  weight: 8    
  band:
  - # 1
    frequency:     0.7834534344
  - # 2
    frequency:     0.7834534344
  - # 3
    frequency:     1.2872481047
  - # 4
    frequency:     2.4473165776
  - # 5
    frequency:     2.4473165776
  - # 6
    frequency:     4.0951962916

- q-position: [    0.1666667,    0.0000000,    0.0000000 ]
  weight: 8    
  band:
  - # 1
    frequency:     0.8718653856
  - # 2
    frequency:     0.8718653856
  - # 3
    frequency:     1.4384205783
  - # 4
    frequency:     2.6379090342
  - # 5
    frequency:     2.6379090342
  - # 6
    frequency:     4.1914120860

- q-position: [    0.1875000,    0.0000000,    0.0000000 ]
  weight: 8    
  band:
  - # 1
    frequency:     0.9566721369
  - # 2
    frequency:     0.9566721369
  - # 3
    frequency:     1.5800242959
  - # 4
    frequency:     2.8158625906
  - # 5
    frequency:     2.8158625906
  - # 6
    frequency:     4.2842484742

- q-position: [    0.2083333,    0.0000000,    0.0000000 ]
  weight: 8    
  band:
  - # 1
    frequency:     1.0379111392
  - # 2
    frequency:     1.0379111392
  - # 3
    frequency:     1.7126322076
  - # 4
    frequency:     2.9782040922
  - # 5
    frequency:     2.9782040922
  - # 6
    frequency:     4.3699699159

- q-position: [    0.2291667,    0.0000000,    0.0000000 ]
  weight: 8    
  band:
  - # 1
    frequency:     1.1155155476
  - # 2
    frequency:     1.1155155476
  - # 3
    frequency:     1.8371873032
  - # 4
    frequency:     3.1231116140
  - # 5
    frequency:     3.1231116140
  - # 6
    frequency:     4.4453031216

- q-position: [    0.2500000,    0.0000000,    0.0000000 ]
  weight: 8    
  band:
  - # 1
    frequency:     1.1893586661
  - # 2
    frequency:     1.1893586661
  - # 3
    frequency:     1.9549446238
  - # 4
    frequency:     3.2496931870
  - # 5
    frequency:     3.2496931870
  - # 6
    frequency:     4.5075246404

- q-position: [    0.2708333,    0.0000000,    0.0000000 ]
  weight: 8    
  band:
  - # 1
    frequency:     1.2592700893
  - # 2
    frequency:     1.2592700893
  - # 3
    frequency:     2.0673815430
  - # 4
    frequency:     3.3578248580
  - # 5
    frequency:     3.3578248580
  - # 6
    frequency:     4.5545264659

- q-position: [    0.2916667,    0.0000000,    0.0000000 ]
  weight: 8    
  band:
  - # 1
    frequency:     1.3250371776
  - # 2
    frequency:     1.3250371776
  - # 3
    frequency:     2.1760684357
  - # 4
    frequency:     3.4480217717
  - # 5
    frequency:     3.4480217717
  - # 6
    frequency:     4.5848691504

- q-position: [    0.3125000,    0.0000000,    0.0000000 ]
  weight: 8    
  band:
  - # 1
    frequency:     1.3864005159
  - # 2
    frequency:     1.3864005159
  - # 3
    frequency:     2.2824956085
  - # 4
    frequency:     3.5213255622
  - # 5
    frequency:     3.5213255622
  - # 6
    frequency:     4.5978316072

- q-position: [    0.3333333,    0.0000000,    0.0000000 ]
  weight: 8    
  band:
  - # 1
    frequency:     1.4430488053
  - # 2
    frequency:     1.4430488053
  - # 3
    frequency:     2.3878573647
  - # 4
    frequency:     3.5791979112
  - # 5
    frequency:     3.5791979112
  - # 6
    frequency:     4.5934671896

- q-position: [    0.3541667,    0.0000000,    0.0000000 ]
  weight: 8    
  band:
  - # 1
    frequency:     1.4946167914
  - # 2
    frequency:     1.4946167914
  - # 3
    frequency:     2.4927980365
  - # 4
    frequency:     3.6234142990
  - # 5
    frequency:     3.6234142990
  - # 6
    frequency:     4.5726776092

- q-position: [    0.3750000,    0.0000000,    0.0000000 ]
  weight: 8    
  band:
  - # 1
    frequency:     1.5406888048
  - # 2
    frequency:     1.5406888048
  - # 3
    frequency:     2.5971252084
  - # 4
    frequency:     3.6559545992
  - # 5
    frequency:     3.6559545992
  - # 6
    frequency:     4.5373199832

- q-position: [    0.3958333,    0.0000000,    0.0000000 ]
  weight: 8    
  band:
  - # 1
    frequency:     1.5808098275
  - # 2
    frequency:     1.5808098275
  - # 3
    frequency:     2.6994919951
  - # 4
    frequency:     3.6788890356
  - # 5
    frequency:     3.6788890356
  - # 6
    frequency:     4.4903657828

- q-position: [    0.4166667,    0.0000000,    0.0000000 ]
  weight: 8    
  band:
  - # 1
    frequency:     1.6145052848
  - # 2
    frequency:     1.6145052848
  - # 3
    frequency:     2.7970519784
  - # 4
    frequency:     3.6942597366
  - # 5
    frequency:     3.6942597366
  - # 6
    frequency:     4.4361238731

- q-position: [    0.4375000,    0.0000000,    0.0000000 ]
  weight: 8    
  band:
  - # 1
    frequency:     1.6413096156
  - # 2
    frequency:     1.6413096156
  - # 3
    frequency:     2.8851307669
  - # 4
    frequency:     3.7039601472
  - # 5
    frequency:     3.7039601472
  - # 6
    frequency:     4.3804908113

- q-position: [    0.4583333,    0.0000000,    0.0000000 ]
  weight: 8    
  band:
  - # 1
    frequency:     1.6608018538
  - # 2
    frequency:     1.6608018538
  - # 3
    frequency:     2.9571159869
  - # 4
    frequency:     3.7096170945
  - # 5
    frequency:     3.7096170945
  - # 6
    frequency:     4.3310239329

- q-position: [    0.4791667,    0.0000000,    0.0000000 ]
  weight: 8    
  band:
  - # 1
    frequency:     1.6726441392
  - # 2
    frequency:     1.6726441392
  - # 3
    frequency:     3.0051105349
  - # 4
    frequency:     3.7124830540
  - # 5
    frequency:     3.7124830540
  - # 6
    frequency:     4.2962818948

- q-position: [    0.5000000,    0.0000000,    0.0000000 ]
  weight: 4    
  band:
  - # 1
    frequency:     1.6766169631
  - # 2
    frequency:     1.6766169631
  - # 3
    frequency:     3.0220814465
  - # 4
    frequency:     3.7133483118
  - # 5
    frequency:     3.7133483118
  - # 6
    frequency:     4.2836859410

- q-position: [    0.0208333,    0.0208333,    0.0000000 ]
  weight: 6    
  band:
  - # 1
    frequency:     0.1473613683
  - # 2
    frequency:     0.1473613683
  - # 3
    frequency:     0.2409909230
  - # 4
    frequency:     1.4504209385
  - # 5
    frequency:     1.4504209385
  - # 6
    frequency:     3.6838452555

- q-position: [    0.0416667,    0.0208333,    0.0000000 ]
  weight: 24   
  band:
  - # 1
    frequency:     0.2434168718
  - # 2
    frequency:     0.2477153858
  - # 3
    frequency:     0.3901167388
  - # 4
    frequency:     1.5167407273
  - # 5
    frequency:     1.5226603776
  - # 6
    frequency:     3.7101119800

- q-position: [    0.0625000,    0.0208333,    0.0000000 ]
  weight: 24   
  band:
  - # 1
    frequency:     0.3535176476
  - # 2
    frequency:     0.3612493934
  - # 3
    frequency:     0.5640571501
  - # 4
    frequency:     1.6353282201
  - # 5
    frequency:     1.6511844526
  - # 6
    frequency:     3.7542485432

- q-position: [    0.0833333,    0.0208333,    0.0000000 ]
  weight: 24   
  band:
  - # 1
    frequency:     0.4601906769
  - # 2
    frequency:     0.4697974956
  - # 3
    frequency:     0.7423092698
  - # 4
    frequency:     1.7924324847
  - # 5
    frequency:     1.8178929505
  - # 6
    frequency:     3.8154077800

- q-position: [    0.1041667,    0.0208333,    0.0000000 ]
  weight: 24   
  band:
  - # 1
    frequency:     0.5608096791
  - # 2
    frequency:     0.5723840597
  - # 3
    frequency:     0.9176666711
  - # 4
    frequency:     1.9735397093
  - # 5
    frequency:     2.0075190806
  - # 6
    frequency:     3.8906540723

- q-position: [    0.1250000,    0.0208333,    0.0000000 ]
  weight: 24   
  band:
  - # 1
    frequency:     0.6558779418
  - # 2
    frequency:     0.6702030042
  - # 3
    frequency:     1.0867869532
  - # 4
    frequency:     2.1660680546
  - # 5
    frequency:     2.2074698981
  - # 6
    frequency:     3.9762824889

- q-position: [    0.1458333,    0.0208333,    0.0000000 ]
  weight: 24   
  band:
  - # 1
    frequency:     0.7462841842
  - # 2
    frequency:     0.7642267999
  - # 3
    frequency:     1.2479051713
  - # 4
    frequency:     2.3602497543
  - # 5
    frequency:     2.4081337754
  - # 6
    frequency:     4.0682216930

- q-position: [    0.1666667,    0.0208333,    0.0000000 ]
  weight: 24   
  band:
  - # 1
    frequency:     0.8326741403
  - # 2
    frequency:     0.8549220253
  - # 3
    frequency:     1.4001437151
  - # 4
    frequency:     2.5489306346
  - # 5
    frequency:     2.6024925399
  - # 6
    frequency:     4.1622967831

- q-position: [    0.1875000,    0.0208333,    0.0000000 ]
  weight: 24   
  band:
  - # 1
    frequency:     0.9154213110
  - # 2
    frequency:     0.9423867681
  - # 3
    frequency:     1.5432566532
  - # 4
    frequency:     2.7270554040
  - # 5
    frequency:     2.7855537355
  - # 6
    frequency:     4.2544419376

- q-position: [    0.2083333,    0.0208333,    0.0000000 ]
  weight: 24   
  band:
  - # 1
    frequency:     0.9947164108
  - # 2
    frequency:     1.0265090226
  - # 3
    frequency:     1.6775097576
  - # 4
    frequency:     2.8911913384
  - # 5
    frequency:     2.9538751695
  - # 6
    frequency:     4.3408704149

- q-position: [    0.2291667,    0.0208333,    0.0000000 ]
  weight: 24   
  band:
  - # 1
    frequency:     1.0706423606
  - # 2
    frequency:     1.1070700525
  - # 3
    frequency:     1.8036028354
  - # 4
    frequency:     3.0391709260
  - # 5
    frequency:     3.1052248997
  - # 6
    frequency:     4.4182050186

- q-position: [    0.2500000,    0.0208333,    0.0000000 ]
  weight: 24   
  band:
  - # 1
    frequency:     1.1432147642
  - # 2
    frequency:     1.1837988290
  - # 3
    frequency:     1.9225963562
  - # 4
    frequency:     3.1698369762
  - # 5
    frequency:     3.2383459876
  - # 6
    frequency:     4.4835754637

- q-position: [    0.2708333,    0.0208333,    0.0000000 ]
  weight: 24   
  band:
  - # 1
    frequency:     1.2123958377
  - # 2
    frequency:     1.2563953319
  - # 3
    frequency:     2.0358214187
  - # 4
    frequency:     3.2828562709
  - # 5
    frequency:     3.3527880704
  - # 6
    frequency:     4.5346913303

- q-position: [    0.2916667,    0.0208333,    0.0000000 ]
  weight: 24   
  band:
  - # 1
    frequency:     1.2780927181
  - # 2
    frequency:     1.3245365709
  - # 3
    frequency:     2.1447594475
  - # 4
    frequency:     3.3785737367
  - # 5
    frequency:     3.4487771823
  - # 6
    frequency:     4.5698998489

- q-position: [    0.3125000,    0.0208333,    0.0000000 ]
  weight: 24   
  band:
  - # 1
    frequency:     1.3401486778
  - # 2
    frequency:     1.3878743713
  - # 3
    frequency:     2.2508836001
  - # 4
    frequency:     3.4578881731
  - # 5
    frequency:     3.5271052085
  - # 6
    frequency:     4.5882375086

- q-position: [    0.3333333,    0.0208333,    0.0000000 ]
  weight: 24   
  band:
  - # 1
    frequency:     1.3983331970
  - # 2
    frequency:     1.4460309375
  - # 3
    frequency:     2.3554593944
  - # 4
    frequency:     3.5221377408
  - # 5
    frequency:     3.5890275498
  - # 6
    frequency:     4.5894845185

- q-position: [    0.3541667,    0.0208333,    0.0000000 ]
  weight: 24   
  band:
  - # 1
    frequency:     1.4523350301
  - # 2
    frequency:     1.4985966506
  - # 3
    frequency:     2.4593067661
  - # 4
    frequency:     3.5729882765
  - # 5
    frequency:     3.6361621765
  - # 6
    frequency:     4.5742324240

- q-position: [    0.3750000,    0.0208333,    0.0000000 ]
  weight: 24   
  band:
  - # 1
    frequency:     1.5017612443
  - # 2
    frequency:     1.5451335835
  - # 3
    frequency:     2.5625279586
  - # 4
    frequency:     3.6123206587
  - # 5
    frequency:     3.6703860144
  - # 6
    frequency:     4.5439781307

- q-position: [    0.3958333,    0.0208333,    0.0000000 ]
  weight: 24   
  band:
  - # 1
    frequency:     1.5461444283
  - # 2
    frequency:     1.5851871043
  - # 3
    frequency:     2.6642045803
  - # 4
    frequency:     3.6421156217
  - # 5
    frequency:     3.6937261801
  - # 6
    frequency:     4.5012611971

- q-position: [    0.4166667,    0.0208333,    0.0000000 ]
  weight: 24   
  band:
  - # 1
    frequency:     1.5849595471
  - # 2
    frequency:     1.6183064182
  - # 3
    frequency:     2.7620677752
  - # 4
    frequency:     3.6643361721
  - # 5
    frequency:     3.7082443542
  - # 6
    frequency:     4.4498593405

- q-position: [    0.4375000,    0.0208333,    0.0000000 ]
  weight: 24   
  band:
  - # 1
    frequency:     1.6176508910
  - # 2
    frequency:     1.6440731502
  - # 3
    frequency:     2.8521697408
  - # 4
    frequency:     3.6808095798
  - # 5
    frequency:     3.7159128248
  - # 6
    frequency:     4.3950277735

- q-position: [    0.4583333,    0.0208333,    0.0000000 ]
  weight: 24   
  band:
  - # 1
    frequency:     1.6436679856
  - # 2
    frequency:     1.6621353728
  - # 3
    frequency:     2.9286907559
  - # 4
    frequency:     3.6931130335
  - # 5
    frequency:     3.7184820280
  - # 6
    frequency:     4.3436537432

- q-position: [    0.4791667,    0.0208333,    0.0000000 ]
  weight: 24   
  band:
  - # 1
    frequency:     1.6625072023
  - # 2
    frequency:     1.6722429329
  - # 3
    frequency:     2.9842803101
  - # 4
    frequency:     3.7024693740
  - # 5
    frequency:     3.7173492156
  - # 6
    frequency:     4.3039170715

- q-position: [    0.5000000,    0.0208333,    0.0000000 ]
  weight: 24   
  band:
  - # 1
    frequency:     1.6737536195
  - # 2
    frequency:     1.6742786548
  - # 3
    frequency:     3.0116099510
  - # 4
    frequency:     3.7096612671
  - # 5
    frequency:     3.7134671316
  - # 6
    frequency:     4.2837357564

- q-position: [   -0.4791667,    0.0208333,    0.0000000 ]
  weight: 24   
  band:
  - # 1
    frequency:     1.6682045133
  - # 2
    frequency:     1.6771163517
  - # 3
    frequency:     3.0060824993
  - # 4
    frequency:     3.7074922296
  - # 5
    frequency:     3.7149727924
  - # 6
    frequency:     4.2878430150

- q-position: [   -0.4583333,    0.0208333,    0.0000000 ]
  weight: 24   
  band:
  - # 1
    frequency:     1.6542632921
  - # 2
    frequency:     1.6724510299
  - # 3
    frequency:     2.9687382427
  - # 4
    frequency:     3.6994217228
  - # 5
    frequency:     3.7181658383
  - # 6
    frequency:     4.3152289350

- q-position: [   -0.4375000,    0.0208333,    0.0000000 ]
  weight: 24   
  band:
  - # 1
    frequency:     1.6328493121
  - # 2
    frequency:     1.6597656479
  - # 3
    frequency:     2.9054001159
  - # 4
    frequency:     3.6888099739
  - # 5
    frequency:     3.7184947924
  - # 6
    frequency:     4.3597646576

- q-position: [   -0.4166667,    0.0208333,    0.0000000 ]
  weight: 24   
  band:
  - # 1
    frequency:     1.6044383112
  - # 2
    frequency:     1.6392098460
  - # 3
    frequency:     2.8236592588
  - # 4
    frequency:     3.6748326301
  - # 5
    frequency:     3.7147578125
  - # 6
    frequency:     4.4131735715

- q-position: [   -0.3958333,    0.0208333,    0.0000000 ]
  weight: 24   
  band:
  - # 1
    frequency:     1.5695834613
  - # 2
    frequency:     1.6110513514
  - # 3
    frequency:     2.7304416920
  - # 4
    frequency:     3.6562138511
  - # 5
    frequency:     3.7053782074
  - # 6
    frequency:     4.4675988284

- q-position: [   -0.3750000,    0.0208333,    0.0000000 ]
  weight: 24   
  band:
  - # 1
    frequency:     1.5288686994
  - # 2
    frequency:     1.5756454027
  - # 3
    frequency:     2.6309370415
  - # 4
    frequency:     3.6313134400
  - # 5
    frequency:     3.6885066850
  - # 6
    frequency:     4.5166834690

- q-position: [   -0.3541667,    0.0208333,    0.0000000 ]
  weight: 24   
  band:
  - # 1
    frequency:     1.4828637753
  - # 2
    frequency:     1.5334030651
  - # 3
    frequency:     2.5285026457
  - # 4
    frequency:     3.5982516545
  - # 5
    frequency:     3.6621349692
  - # 6
    frequency:     4.5556798906

- q-position: [   -0.3333333,    0.0208333,    0.0000000 ]
  weight: 24   
  band:
  - # 1
    frequency:     1.4320868882
  - # 2
    frequency:     1.4847629359
  - # 3
    frequency:     2.4249275573
  - # 4
    frequency:     3.5550390401
  - # 5
    frequency:     3.6242129852
  - # 6
    frequency:     4.5812399419

- q-position: [   -0.3125000,    0.0208333,    0.0000000 ]
  weight: 24   
  band:
  - # 1
    frequency:     1.3769786913
  - # 2
    frequency:     1.4301687788
  - # 3
    frequency:     2.3207660430
  - # 4
    frequency:     3.4997021819
  - # 5
    frequency:     3.5727643887
  - # 6
    frequency:     4.5911836554

- q-position: [   -0.2916667,    0.0208333,    0.0000000 ]
  weight: 24   
  band:
  - # 1
    frequency:     1.3178890118
  - # 2
    frequency:     1.3700538975
  - # 3
    frequency:     2.2156567631
  - # 4
    frequency:     3.4304043739
  - # 5
    frequency:     3.5059977621
  - # 6
    frequency:     4.5843233331

- q-position: [   -0.2708333,    0.0208333,    0.0000000 ]
  weight: 24   
  band:
  - # 1
    frequency:     1.2550753335
  - # 2
    frequency:     1.3048318868
  - # 3
    frequency:     2.1086133424
  - # 4
    frequency:     3.3455618446
  - # 5
    frequency:     3.4224128695
  - # 6
    frequency:     4.5603421962

- q-position: [   -0.2500000,    0.0208333,    0.0000000 ]
  weight: 24   
  band:
  - # 1
    frequency:     1.1887102878
  - # 2
    frequency:     1.2348926890
  - # 3
    frequency:     1.9982840726
  - # 4
    frequency:     3.2439569259
  - # 5
    frequency:     3.3209030377
  - # 6
    frequency:     4.5197105255

- q-position: [   -0.2291667,    0.0208333,    0.0000000 ]
  weight: 24   
  band:
  - # 1
    frequency:     1.1188942860
  - # 2
    frequency:     1.1606023445
  - # 3
    frequency:     1.8831768951
  - # 4
    frequency:     3.1248508129
  - # 5
    frequency:     3.2008563466
  - # 6
    frequency:     4.4636234143

- q-position: [   -0.2083333,    0.0208333,    0.0000000 ]
  weight: 24   
  band:
  - # 1
    frequency:     1.0456687435
  - # 2
    frequency:     1.0823040970
  - # 3
    frequency:     1.7618453245
  - # 4
    frequency:     2.9881007744
  - # 5
    frequency:     3.0622604377
  - # 6
    frequency:     4.3939479592

- q-position: [   -0.1875000,    0.0208333,    0.0000000 ]
  weight: 24   
  band:
  - # 1
    frequency:     0.9690245200
  - # 2
    frequency:     1.0003172358
  - # 3
    frequency:     1.6330339487
  - # 4
    frequency:     2.8342903521
  - # 5
    frequency:     2.9058190210
  - # 6
    frequency:     4.3131701298

- q-position: [   -0.1666667,    0.0208333,    0.0000000 ]
  weight: 24   
  band:
  - # 1
    frequency:     0.8888985551
  - # 2
    frequency:     0.9149278391
  - # 3
    frequency:     1.4957872087
  - # 4
    frequency:     2.6648869076
  - # 5
    frequency:     2.7330933668
  - # 6
    frequency:     4.2243323335

- q-position: [   -0.1458333,    0.0208333,    0.0000000 ]
  weight: 24   
  band:
  - # 1
    frequency:     0.8051491096
  - # 2
    frequency:     0.8263621456
  - # 3
    frequency:     1.3495305420
  - # 4
    frequency:     2.4824493925
  - # 5
    frequency:     2.5466898589
  - # 6
    frequency:     4.1309524613

- q-position: [   -0.1250000,    0.0208333,    0.0000000 ]
  weight: 24   
  band:
  - # 1
    frequency:     0.7174984313
  - # 2
    frequency:     0.7347293382
  - # 3
    frequency:     1.1941381196
  - # 4
    frequency:     2.2909193209
  - # 5
    frequency:     2.3505244574
  - # 6
    frequency:     4.0369149058

- q-position: [   -0.1041667,    0.0208333,    0.0000000 ]
  weight: 24   
  band:
  - # 1
    frequency:     0.6254403328
  - # 2
    frequency:     0.6399217473
  - # 3
    frequency:     1.0300085201
  - # 4
    frequency:     2.0960317764
  - # 5
    frequency:     2.1502003108
  - # 6
    frequency:     3.9463246460

- q-position: [   -0.0833333,    0.0208333,    0.0000000 ]
  weight: 24   
  band:
  - # 1
    frequency:     0.5281624616
  - # 2
    frequency:     0.5414905692
  - # 3
    frequency:     0.8581884404
  - # 4
    frequency:     1.9058527419
  - # 5
    frequency:     1.9535106265
  - # 6
    frequency:     3.8633172853

- q-position: [   -0.0625000,    0.0208333,    0.0000000 ]
  weight: 24   
  band:
  - # 1
    frequency:     0.4247291114
  - # 2
    frequency:     0.4386506096
  - # 3
    frequency:     0.6806521420
  - # 4
    frequency:     1.7313166813
  - # 5
    frequency:     1.7709554206
  - # 6
    frequency:     3.7918185101

- q-position: [   -0.0416667,    0.0208333,    0.0000000 ]
  weight: 24   
  band:
  - # 1
    frequency:     0.3153964140
  - # 2
    frequency:     0.3310096059
  - # 3
    frequency:     0.5011326663
  - # 4
    frequency:     1.5863444511
  - # 5
    frequency:     1.6158263293
  - # 6
    frequency:     3.7352333682

- q-position: [   -0.0208333,    0.0208333,    0.0000000 ]
  weight: 12   
  band:
  - # 1
    frequency:     0.2073103249
  - # 2
    frequency:     0.2220481456
  - # 3
    frequency:     0.3285136483
  - # 4
    frequency:     1.4868982137
  - # 5
    frequency:     1.5029505539
  - # 6
    frequency:     3.6959963900

- q-position: [    0.0416667,    0.0416667,    0.0000000 ]
  weight: 6    
  band:
  - # 1
    frequency:     0.2836302844
  - # 2
    frequency:     0.2836302844
  - # 3
    frequency:     0.4798919711
  - # 4
    frequency:     1.5532576960
  - # 5
    frequency:     1.5532576960
  - # 6
    frequency:     3.7361752321

- q-position: [    0.0625000,    0.0416667,    0.0000000 ]
  weight: 24   
  band:
  - # 1
    frequency:     0.3609366512
  - # 2
    frequency:     0.3643730960
  - # 3
    frequency:     0.6141677704
  - # 4
    frequency:     1.6422528398
  - # 5
    frequency:     1.6494416764
  - # 6
    frequency:     3.7758396796

- q-position: [    0.0833333,    0.0416667,    0.0000000 ]
  weight: 24   
  band:
  - # 1
    frequency:     0.4505850736
  - # 2
    frequency:     0.4598173468
  - # 3
    frequency:     0.7665294928
  - # 4
    frequency:     1.7728662594
  - # 5
    frequency:     1.7956987222
  - # 6
    frequency:     3.8287914225

- q-position: [    0.1041667,    0.0416667,    0.0000000 ]
  weight: 24   
  band:
  - # 1
    frequency:     0.5415021487
  - # 2
    frequency:     0.5566400455
  - # 3
    frequency:     0.9252305332
  - # 4
    frequency:     1.9321136596
  - # 5
    frequency:     1.9725365878
  - # 6
    frequency:     3.8945520202

- q-position: [    0.1250000,    0.0416667,    0.0000000 ]
  weight: 24   
  band:
  - # 1
    frequency:     0.6300903172
  - # 2
    frequency:     0.6516808332
  - # 3
    frequency:     1.0837697290
  - # 4
    frequency:     2.1076819443
  - # 5
    frequency:     2.1650050242
  - # 6
    frequency:     3.9707611376

- q-position: [    0.1458333,    0.0416667,    0.0000000 ]
  weight: 24   
  band:
  - # 1
    frequency:     0.7154957751
  - # 2
    frequency:     0.7445232722
  - # 3
    frequency:     1.2382813639
  - # 4
    frequency:     2.2893724252
  - # 5
    frequency:     2.3621452559
  - # 6
    frequency:     4.0540961217

- q-position: [    0.1666667,    0.0416667,    0.0000000 ]
  weight: 24   
  band:
  - # 1
    frequency:     0.7976813177
  - # 2
    frequency:     0.8351165235
  - # 3
    frequency:     1.3865116440
  - # 4
    frequency:     2.4693803922
  - # 5
    frequency:     2.5560283561
  - # 6
    frequency:     4.1408447209

- q-position: [    0.1875000,    0.0416667,    0.0000000 ]
  weight: 24   
  band:
  - # 1
    frequency:     0.8767866194
  - # 2
    frequency:     0.9232816309
  - # 3
    frequency:     1.5272836617
  - # 4
    frequency:     2.6420205355
  - # 5
    frequency:     2.7409718601
  - # 6
    frequency:     4.2272317162

- q-position: [    0.2083333,    0.0416667,    0.0000000 ]
  weight: 24   
  band:
  - # 1
    frequency:     0.9529553993
  - # 2
    frequency:     1.0086985183
  - # 3
    frequency:     1.6601960627
  - # 4
    frequency:     2.8033268013
  - # 5
    frequency:     2.9129678264
  - # 6
    frequency:     4.3096354085

- q-position: [    0.2291667,    0.0416667,    0.0000000 ]
  weight: 24   
  band:
  - # 1
    frequency:     1.0263012424
  - # 2
    frequency:     1.0909679377
  - # 3
    frequency:     1.7854404620
  - # 4
    frequency:     2.9506985996
  - # 5
    frequency:     3.0692931854
  - # 6
    frequency:     4.3847428114

- q-position: [    0.2500000,    0.0416667,    0.0000000 ]
  weight: 24   
  band:
  - # 1
    frequency:     1.0969016480
  - # 2
    frequency:     1.1696585802
  - # 3
    frequency:     1.9036724629
  - # 4
    frequency:     3.0826266960
  - # 5
    frequency:     3.2082490169
  - # 6
    frequency:     4.4496634879

- q-position: [    0.2708333,    0.0416667,    0.0000000 ]
  weight: 24   
  band:
  - # 1
    frequency:     1.1647904572
  - # 2
    frequency:     1.2443301589
  - # 3
    frequency:     2.0158975920
  - # 4
    frequency:     3.1984847502
  - # 5
    frequency:     3.3289805717
  - # 6
    frequency:     4.5020145250

- q-position: [    0.2916667,    0.0416667,    0.0000000 ]
  weight: 24   
  band:
  - # 1
    frequency:     1.2299446216
  - # 2
    frequency:     1.3145387404
  - # 3
    frequency:     2.1233481264
  - # 4
    frequency:     3.2983645662
  - # 5
    frequency:     3.4313435509
  - # 6
    frequency:     4.5399870676

- q-position: [    0.3125000,    0.0416667,    0.0000000 ]
  weight: 24   
  band:
  - # 1
    frequency:     1.2922681398
  - # 2
    frequency:     1.3798315690
  - # 3
    frequency:     2.2273357919
  - # 4
    frequency:     3.3829371569
  - # 5
    frequency:     3.5157944484
  - # 6
    frequency:     4.5624037395

- q-position: [    0.3333333,    0.0416667,    0.0000000 ]
  weight: 24   
  band:
  - # 1
    frequency:     1.3515770033
  - # 2
    frequency:     1.4397380509
  - # 3
    frequency:     2.3290717835
  - # 4
    frequency:     3.4533275255
  - # 5
    frequency:     3.5832915505
  - # 6
    frequency:     4.5687755938

- q-position: [    0.3541667,    0.0416667,    0.0000000 ]
  weight: 24   
  band:
  - # 1
    frequency:     1.4075884628
  - # 2
    frequency:     1.4937635378
  - # 3
    frequency:     2.4294506863
  - # 4
    frequency:     3.5109958519
  - # 5
    frequency:     3.6351988801
  - # 6
    frequency:     4.5593674581

- q-position: [    0.3750000,    0.0416667,    0.0000000 ]
  weight: 24   
  band:
  - # 1
    frequency:     1.4599171400
  - # 2
    frequency:     1.5413920787
  - # 3
    frequency:     2.5287988667
  - # 4
    frequency:     3.5576212101
  - # 5
    frequency:     3.6731886785
  - # 6
    frequency:     4.5352821544

- q-position: [    0.3958333,    0.0416667,    0.0000000 ]
  weight: 24   
  band:
  - # 1
    frequency:     1.5080797760
  - # 2
    frequency:     1.5821021018
  - # 3
    frequency:     2.6265909783
  - # 4
    frequency:     3.5949863478
  - # 5
    frequency:     3.6991393888
  - # 6
    frequency:     4.4985765714

- q-position: [    0.4166667,    0.0416667,    0.0000000 ]
  weight: 24   
  band:
  - # 1
    frequency:     1.5515097156
  - # 2
    frequency:     1.6153950260
  - # 3
    frequency:     2.7211431584
  - # 4
    frequency:     3.6248638339
  - # 5
    frequency:     3.7150254312
  - # 6
    frequency:     4.4524221397

- q-position: [    0.4375000,    0.0416667,    0.0000000 ]
  weight: 24   
  band:
  - # 1
    frequency:     1.5895813980
  - # 2
    frequency:     1.6408327397
  - # 3
    frequency:     2.8093109958
  - # 4
    frequency:     3.6489053838
  - # 5
    frequency:     3.7227918563
  - # 6
    frequency:     4.4013051659

- q-position: [    0.4583333,    0.0416667,    0.0000000 ]
  weight: 24   
  band:
  - # 1