natom:   64
displacements:
- atom:    1
  direction:
    [   0.0000000000000000,  0.0000000000000000,  1.0000000000000000 ]
  displacement:
    [  -0.0040508804992418, -0.0040491186874258,  0.0081972559454980 ]
- atom:    1
  direction:
    [   0.0000000000000000,  0.0000000000000000, -1.0000000000000000 ]
  displacement:
    [   0.0040508804992418,  0.0040491186874258, -0.0081972559454980 ]
- atom:    9
  direction:
    [   0.0000000000000000,  0.0000000000000000,  1.0000000000000000 ]
  displacement:
    [  -0.0040508804992418, -0.0040491186874258,  0.0081972559454980 ]
- atom:    9
  direction:
    [   0.0000000000000000,  0.0000000000000000, -1.0000000000000000 ]
  displacement:
    [   0.0040508804992418,  0.0040491186874258, -0.0081972559454980 ]
- atom:   17
  direction:
    [   0.0000000000000000,  0.0000000000000000,  1.0000000000000000 ]
  displacement:
    [  -0.0040508804992418, -0.0040491186874258,  0.0081972559454980 ]
- atom:   17
  direction:
    [   0.0000000000000000,  0.0000000000000000, -1.0000000000000000 ]
  displacement:
    [   0.0040508804992418,  0.0040491186874258, -0.0081972559454980 ]
- atom:   25
  direction:
    [   0.0000000000000000,  0.0000000000000000,  1.0000000000000000 ]
  displacement:
    [  -0.0040508804992418, -0.0040491186874258,  0.0081972559454980 ]
- atom:   25
  direction:
    [   0.0000000000000000,  0.0000000000000000, -1.0000000000000000 ]
  displacement:
    [   0.0040508804992418,  0.0040491186874258, -0.0081972559454980 ]
- atom:   33
  direction:
    [   1.0000000000000000,  0.0000000000000000,  0.0000000000000000 ]
  displacement:
    [   0.0099999987164280, -0.0000019207440916, -0.0000046885158764 ]
- atom:   33
  direction:
    [  -1.0000000000000000,  0.0000000000000000,  0.0000000000000000 ]
  displacement:
    [  -0.0099999987164280,  0.0000019207440916,  0.0000046885158764 ]
- atom:   33
  direction:
    [   0.0000000000000000,  1.0000000000000000,  0.0000000000000000 ]
  displacement:
    [   0.0000032822628209,  0.0099999989360194, -0.0000032413517182 ]
- atom:   33
  direction:
    [   0.0000000000000000, -1.0000000000000000,  0.0000000000000000 ]
  displacement:
    [  -0.0000032822628209, -0.0099999989360194,  0.0000032413517182 ]
- atom:   33
  direction:
    [   0.0000000000000000,  0.0000000000000000,  1.0000000000000000 ]
  displacement:
    [  -0.0040508804992418, -0.0040491186874258,  0.0081972559454980 ]
- atom:   33
  direction:
    [   0.0000000000000000,  0.0000000000000000, -1.0000000000000000 ]
  displacement:
    [   0.0040508804992418,  0.0040491186874258, -0.0081972559454980 ]
lattice:
- [   10.719143630624139,  -0.002058873443785,  -0.005025688154466 ]
- [    0.003518438381342,  10.719549892720877,  -0.003474583515971 ]
- [   -5.354691383080944,  -5.352362516911850,  10.835613586844421 ]
atoms:
- symbol: Cu # 1
  position: [   0.49911520500000,  0.49912385500000,  0.00010258000000 ]
- symbol: Cu # 2
  position: [   0.99911520500000,  0.49912385500000,  0.00010258000000 ]
- symbol: Cu # 3
  position: [   0.49911520500000,  0.99912385500000,  0.00010258000000 ]
- symbol: Cu # 4
  position: [   0.99911520500000,  0.99912385500000,  0.00010258000000 ]
- symbol: Cu # 5
  position: [   0.49911520500000,  0.49912385500000,  0.50010258000000 ]
- symbol: Cu # 6
  position: [   0.99911520500000,  0.49912385500000,  0.50010258000000 ]
- symbol: Cu # 7
  position: [   0.49911520500000,  0.99912385500000,  0.50010258000000 ]
- symbol: Cu # 8
  position: [   0.99911520500000,  0.99912385500000,  0.50010258000000 ]
- symbol: Cu # 9
  position: [   0.12408699500000,  0.37408138000000,  0.24998603000000 ]
- symbol: Cu # 10
  position: [   0.62408699500000,  0.37408138000000,  0.24998603000000 ]
- symbol: Cu # 11
  position: [   0.12408699500000,  0.87408138000000,  0.24998603000000 ]
- symbol: Cu # 12
  position: [   0.62408699500000,  0.87408138000000,  0.24998603000000 ]
- symbol: Cu # 13
  position: [   0.12408699500000,  0.37408138000000,  0.74998603000000 ]
- symbol: Cu # 14
  position: [   0.62408699500000,  0.37408138000000,  0.74998603000000 ]
- symbol: Cu # 15
  position: [   0.12408699500000,  0.87408138000000,  0.74998603000000 ]
- symbol: Cu # 16
  position: [   0.62408699500000,  0.87408138000000,  0.74998603000000 ]
- symbol: Zn # 17
  position: [   0.37409137000000,  0.12405474500000,  0.24996464000000 ]
- symbol: Zn # 18
  position: [   0.87409137000000,  0.12405474500000,  0.24996464000000 ]
- symbol: Zn # 19
  position: [   0.37409137000000,  0.62405474500000,  0.24996464000000 ]
- symbol: Zn # 20
  position: [   0.87409137000000,  0.62405474500000,  0.24996464000000 ]
- symbol: Zn # 21
  position: [   0.37409137000000,  0.12405474500000,  0.74996464000000 ]
- symbol: Zn # 22
  position: [   0.87409137000000,  0.12405474500000,  0.74996464000000 ]
- symbol: Zn # 23
  position: [   0.37409137000000,  0.62405474500000,  0.74996464000000 ]
- symbol: Zn # 24
  position: [   0.87409137000000,  0.62405474500000,  0.74996464000000 ]
- symbol: Sn # 25
  position: [   0.24903673500000,  0.24902777000000,  0.49990870500000 ]
- symbol: Sn # 26
  position: [   0.74903673500000,  0.24902777000000,  0.49990870500000 ]
- symbol: Sn # 27
  position: [   0.24903673500000,  0.74902777000000,  0.49990870500000 ]
- symbol: Sn # 28
  position: [   0.74903673500000,  0.74902777000000,  0.49990870500000 ]
- symbol: Sn # 29
  position: [   0.24903673500000,  0.24902777000000,  0.99990870500000 ]
- symbol: Sn # 30
  position: [   0.74903673500000,  0.24902777000000,  0.99990870500000 ]
- symbol: Sn # 31
  position: [   0.24903673500000,  0.74902777000000,  0.99990870500000 ]
- symbol: Sn # 32
  position: [   0.74903673500000,  0.74902777000000,  0.99990870500000 ]
- symbol: S  # 33
  position: [   0.44834465883010,  0.18411489534685,  0.12984670463218 ]
- symbol: S  # 34
  position: [   0.94834465883010,  0.18411489534685,  0.12984670463218 ]
- symbol: S  # 35
  position: [   0.44834465883010,  0.68411489534685,  0.12984670463218 ]
- symbol: S  # 36
  position: [   0.94834465883010,  0.68411489534685,  0.12984670463218 ]
- symbol: S  # 37
  position: [   0.44834465883010,  0.18411489534685,  0.62984670463218 ]
- symbol: S  # 38
  position: [   0.94834465883010,  0.18411489534685,  0.62984670463218 ]
- symbol: S  # 39
  position: [   0.44834465883010,  0.68411489534685,  0.62984670463218 ]
- symbol: S  # 40
  position: [   0.94834465883010,  0.68411489534685,  0.62984670463218 ]
- symbol: S  # 41
  position: [   0.31414790965314,  0.31849263419793,  0.37011285536782 ]
- symbol: S  # 42
  position: [   0.81414790965314,  0.31849263419793,  0.37011285536782 ]
- symbol: S  # 43
  position: [   0.31414790965314,  0.81849263419793,  0.37011285536782 ]
- symbol: S  # 44
  position: [   0.81414790965314,  0.81849263419793,  0.37011285536782 ]
- symbol: S  # 45
  position: [   0.31414790965314,  0.31849263419793,  0.87011285536782 ]
- symbol: S  # 46
  position: [   0.81414790965314,  0.31849263419793,  0.87011285536782 ]
- symbol: S  # 47
  position: [   0.31414790965314,  0.81849263419793,  0.87011285536782 ]
- symbol: S  # 48
  position: [   0.81414790965314,  0.81849263419793,  0.87011285536782 ]
- symbol: S  # 49
  position: [   0.05421335071468,  0.04980784616990,  0.37013725536782 ]
- symbol: S  # 50
  position: [   0.55421335071468,  0.04980784616990,  0.37013725536782 ]
- symbol: S  # 51
  position: [   0.05421335071468,  0.54980784616990,  0.37013725536782 ]
- symbol: S  # 52
  position: [   0.55421335071468,  0.54980784616990,  0.37013725536782 ]
- symbol: S  # 53
  position: [   0.05421335071468,  0.04980784616990,  0.87013725536782 ]
- symbol: S  # 54
  position: [   0.55421335071468,  0.04980784616990,  0.87013725536782 ]
- symbol: S  # 55
  position: [   0.05421335071468,  0.54980784616990,  0.87013725536782 ]
- symbol: S  # 56
  position: [   0.55421335071468,  0.54980784616990,  0.87013725536782 ]
- symbol: S  # 57
  position: [   0.17974423080207,  0.44393298428532,  0.12983955963218 ]
- symbol: S  # 58
  position: [   0.67974423080207,  0.44393298428532,  0.12983955963218 ]
- symbol: S  # 59
  position: [   0.17974423080207,  0.94393298428532,  0.12983955963218 ]
- symbol: S  # 60
  position: [   0.67974423080207,  0.94393298428532,  0.12983955963218 ]
- symbol: S  # 61
  position: [   0.17974423080207,  0.44393298428532,  0.62983955963218 ]
- symbol: S  # 62
  position: [   0.67974423080207,  0.44393298428532,  0.62983955963218 ]
- symbol: S  # 63
  position: [   0.17974423080207,  0.94393298428532,  0.62983955963218 ]
- symbol: S  # 64
  position: [   0.67974423080207,  0.94393298428532,  0.62983955963218 ]
