natom:   64
displacements:
- atom:    1
  direction:
    [   0.0000000000000000,  0.0000000000000000,  1.0000000000000000 ]
  displacement:
    [  -0.0040511274774195, -0.0040494884130805,  0.0081969512475081 ]
- atom:    1
  direction:
    [   0.0000000000000000,  0.0000000000000000, -1.0000000000000000 ]
  displacement:
    [   0.0040511274774195,  0.0040494884130805, -0.0081969512475081 ]
- atom:    9
  direction:
    [   0.0000000000000000,  0.0000000000000000,  1.0000000000000000 ]
  displacement:
    [  -0.0040511274774195, -0.0040494884130805,  0.0081969512475081 ]
- atom:    9
  direction:
    [   0.0000000000000000,  0.0000000000000000, -1.0000000000000000 ]
  displacement:
    [   0.0040511274774195,  0.0040494884130805, -0.0081969512475081 ]
- atom:   17
  direction:
    [   0.0000000000000000,  0.0000000000000000,  1.0000000000000000 ]
  displacement:
    [  -0.0040511274774195, -0.0040494884130805,  0.0081969512475081 ]
- atom:   17
  direction:
    [   0.0000000000000000,  0.0000000000000000, -1.0000000000000000 ]
  displacement:
    [   0.0040511274774195,  0.0040494884130805, -0.0081969512475081 ]
- atom:   25
  direction:
    [   0.0000000000000000,  0.0000000000000000,  1.0000000000000000 ]
  displacement:
    [  -0.0040511274774195, -0.0040494884130805,  0.0081969512475081 ]
- atom:   25
  direction:
    [   0.0000000000000000,  0.0000000000000000, -1.0000000000000000 ]
  displacement:
    [   0.0040511274774195,  0.0040494884130805, -0.0081969512475081 ]
- atom:   33
  direction:
    [   1.0000000000000000,  0.0000000000000000,  0.0000000000000000 ]
  displacement:
    [   0.0099999986761587, -0.0000019076454308, -0.0000047788820344 ]
- atom:   33
  direction:
    [  -1.0000000000000000,  0.0000000000000000,  0.0000000000000000 ]
  displacement:
    [  -0.0099999986761587,  0.0000019076454308,  0.0000047788820344 ]
- atom:   33
  direction:
    [   0.0000000000000000,  1.0000000000000000,  0.0000000000000000 ]
  displacement:
    [   0.0000030982746894,  0.0099999989393975, -0.0000034077475364 ]
- atom:   33
  direction:
    [   0.0000000000000000, -1.0000000000000000,  0.0000000000000000 ]
  displacement:
    [  -0.0000030982746894, -0.0099999989393975,  0.0000034077475364 ]
- atom:   33
  direction:
    [   0.0000000000000000,  0.0000000000000000,  1.0000000000000000 ]
  displacement:
    [  -0.0040511274774195, -0.0040494884130805,  0.0081969512475081 ]
- atom:   33
  direction:
    [   0.0000000000000000,  0.0000000000000000, -1.0000000000000000 ]
  displacement:
    [   0.0040511274774195,  0.0040494884130805, -0.0081969512475081 ]
lattice:
- [   10.826752404803607,  -0.002065360748936,  -0.005173977940817 ]
- [    0.003354536874163,  10.827111391491899,  -0.003689606608417 ]
- [   -5.408446676809350,  -5.406258448439153,  10.943317380571054 ]
atoms:
- symbol: Cu # 1
  position: [   0.49911520500000,  0.49912385500000,  0.00010258000000 ]
- symbol: Cu # 2
  position: [   0.99911520500000,  0.49912385500000,  0.00010258000000 ]
- symbol: Cu # 3
  position: [   0.49911520500000,  0.99912385500000,  0.00010258000000 ]
- symbol: Cu # 4
  position: [   0.99911520500000,  0.99912385500000,  0.00010258000000 ]
- symbol: Cu # 5
  position: [   0.49911520500000,  0.49912385500000,  0.50010258000000 ]
- symbol: Cu # 6
  position: [   0.99911520500000,  0.49912385500000,  0.50010258000000 ]
- symbol: Cu # 7
  position: [   0.49911520500000,  0.99912385500000,  0.50010258000000 ]
- symbol: Cu # 8
  position: [   0.99911520500000,  0.99912385500000,  0.50010258000000 ]
- symbol: Cu # 9
  position: [   0.12408699500000,  0.37408138000000,  0.24998603000000 ]
- symbol: Cu # 10
  position: [   0.62408699500000,  0.37408138000000,  0.24998603000000 ]
- symbol: Cu # 11
  position: [   0.12408699500000,  0.87408138000000,  0.24998603000000 ]
- symbol: Cu # 12
  position: [   0.62408699500000,  0.87408138000000,  0.24998603000000 ]
- symbol: Cu # 13
  position: [   0.12408699500000,  0.37408138000000,  0.74998603000000 ]
- symbol: Cu # 14
  position: [   0.62408699500000,  0.37408138000000,  0.74998603000000 ]
- symbol: Cu # 15
  position: [   0.12408699500000,  0.87408138000000,  0.74998603000000 ]
- symbol: Cu # 16
  position: [   0.62408699500000,  0.87408138000000,  0.74998603000000 ]
- symbol: Zn # 17
  position: [   0.37409137000000,  0.12405474500000,  0.24996464000000 ]
- symbol: Zn # 18
  position: [   0.87409137000000,  0.12405474500000,  0.24996464000000 ]
- symbol: Zn # 19
  position: [   0.37409137000000,  0.62405474500000,  0.24996464000000 ]
- symbol: Zn # 20
  position: [   0.87409137000000,  0.62405474500000,  0.24996464000000 ]
- symbol: Zn # 21
  position: [   0.37409137000000,  0.12405474500000,  0.74996464000000 ]
- symbol: Zn # 22
  position: [   0.87409137000000,  0.12405474500000,  0.74996464000000 ]
- symbol: Zn # 23
  position: [   0.37409137000000,  0.62405474500000,  0.74996464000000 ]
- symbol: Zn # 24
  position: [   0.87409137000000,  0.62405474500000,  0.74996464000000 ]
- symbol: Sn # 25
  position: [   0.24903673500000,  0.24902777000000,  0.49990870500000 ]
- symbol: Sn # 26
  position: [   0.74903673500000,  0.24902777000000,  0.49990870500000 ]
- symbol: Sn # 27
  position: [   0.24903673500000,  0.74902777000000,  0.49990870500000 ]
- symbol: Sn # 28
  position: [   0.74903673500000,  0.74902777000000,  0.49990870500000 ]
- symbol: Sn # 29
  position: [   0.24903673500000,  0.24902777000000,  0.99990870500000 ]
- symbol: Sn # 30
  position: [   0.74903673500000,  0.24902777000000,  0.99990870500000 ]
- symbol: Sn # 31
  position: [   0.24903673500000,  0.74902777000000,  0.99990870500000 ]
- symbol: Sn # 32
  position: [   0.74903673500000,  0.74902777000000,  0.99990870500000 ]
- symbol: S  # 33
  position: [   0.44788179936303,  0.18428654679670,  0.12958212932981 ]
- symbol: S  # 34
  position: [   0.94788179936303,  0.18428654679670,  0.12958212932981 ]
- symbol: S  # 35
  position: [   0.44788179936303,  0.68428654679670,  0.12958212932981 ]
- symbol: S  # 36
  position: [   0.94788179936303,  0.68428654679670,  0.12958212932981 ]
- symbol: S  # 37
  position: [   0.44788179936303,  0.18428654679670,  0.62958212932981 ]
- symbol: S  # 38
  position: [   0.94788179936303,  0.18428654679670,  0.62958212932981 ]
- symbol: S  # 39
  position: [   0.44788179936303,  0.68428654679670,  0.62958212932981 ]
- symbol: S  # 40
  position: [   0.94788179936303,  0.68428654679670,  0.62958212932981 ]
- symbol: S  # 41
  position: [   0.31397625820329,  0.31829435003322,  0.37037743067019 ]
- symbol: S  # 42
  position: [   0.81397625820329,  0.31829435003322,  0.37037743067019 ]
- symbol: S  # 43
  position: [   0.31397625820329,  0.81829435003322,  0.37037743067019 ]
- symbol: S  # 44
  position: [   0.81397625820329,  0.81829435003322,  0.37037743067019 ]
- symbol: S  # 45
  position: [   0.31397625820329,  0.31829435003322,  0.87037743067019 ]
- symbol: S  # 46
  position: [   0.81397625820329,  0.31829435003322,  0.87037743067019 ]
- symbol: S  # 47
  position: [   0.31397625820329,  0.81829435003322,  0.87037743067019 ]
- symbol: S  # 48
  position: [   0.81397625820329,  0.81829435003322,  0.87037743067019 ]
- symbol: S  # 49
  position: [   0.05464957746689,  0.05027070563697,  0.37040183067019 ]
- symbol: S  # 50
  position: [   0.55464957746689,  0.05027070563697,  0.37040183067019 ]
- symbol: S  # 51
  position: [   0.05464957746689,  0.55027070563697,  0.37040183067019 ]
- symbol: S  # 52
  position: [   0.55464957746689,  0.55027070563697,  0.37040183067019 ]
- symbol: S  # 53
  position: [   0.05464957746689,  0.05027070563697,  0.87040183067019 ]
- symbol: S  # 54
  position: [   0.55464957746689,  0.05027070563697,  0.87040183067019 ]
- symbol: S  # 55
  position: [   0.05464957746689,  0.55027070563697,  0.87040183067019 ]
- symbol: S  # 56
  position: [   0.55464957746689,  0.55027070563697,  0.87040183067019 ]
- symbol: S  # 57
  position: [   0.17994251496678,  0.44349675753311,  0.12957498432981 ]
- symbol: S  # 58
  position: [   0.67994251496678,  0.44349675753311,  0.12957498432981 ]
- symbol: S  # 59
  position: [   0.17994251496678,  0.94349675753311,  0.12957498432981 ]
- symbol: S  # 60
  position: [   0.67994251496678,  0.94349675753311,  0.12957498432981 ]
- symbol: S  # 61
  position: [   0.17994251496678,  0.44349675753311,  0.62957498432981 ]
- symbol: S  # 62
  position: [   0.67994251496678,  0.44349675753311,  0.62957498432981 ]
- symbol: S  # 63
  position: [   0.17994251496678,  0.94349675753311,  0.62957498432981 ]
- symbol: S  # 64
  position: [   0.67994251496678,  0.94349675753311,  0.62957498432981 ]
