nqpoint: 404    
npath: 4      
natom: 2      
phonon:
- q-position: [    0.0000000,    0.0000000,    0.0000000 ]
  distance:    0.0000000
  band:
  - # 1
    frequency:   -0.0024888316
  - # 2
    frequency:   -0.0024888316
  - # 3
    frequency:   -0.0024866830
  - # 4
    frequency:    1.2759444542
  - # 5
    frequency:    1.2759444542
  - # 6
    frequency:    3.3478780182

- q-position: [    0.0050000,    0.0025000,    0.0075000 ]
  distance:    0.0017304
  band:
  - # 1
    frequency:    0.0347453667
  - # 2
    frequency:    0.0382700035
  - # 3
    frequency:    0.0561639527
  - # 4
    frequency:    1.2779719740
  - # 5
    frequency:    1.2782285216
  - # 6
    frequency:    3.3481488130

- q-position: [    0.0100000,    0.0050000,    0.0150000 ]
  distance:    0.0034607
  band:
  - # 1
    frequency:    0.0694854060
  - # 2
    frequency:    0.0764990534
  - # 3
    frequency:    0.1123626264
  - # 4
    frequency:    1.2840236633
  - # 5
    frequency:    1.2850478974
  - # 6
    frequency:    3.3489571918

- q-position: [    0.0150000,    0.0075000,    0.0225000 ]
  distance:    0.0051911
  band:
  - # 1
    frequency:    0.1039223515
  - # 2
    frequency:    0.1143836639
  - # 3
    frequency:    0.1684479018
  - # 4
    frequency:    1.2940081439
  - # 5
    frequency:    1.2963052747
  - # 6
    frequency:    3.3502911840

- q-position: [    0.0200000,    0.0100000,    0.0300000 ]
  distance:    0.0069214
  band:
  - # 1
    frequency:    0.1379520020
  - # 2
    frequency:    0.1518017422
  - # 3
    frequency:    0.2243874286
  - # 4
    frequency:    1.3077771262
  - # 5
    frequency:    1.3118423232
  - # 6
    frequency:    3.3521309932

- q-position: [    0.0250000,    0.0125000,    0.0375000 ]
  distance:    0.0086518
  band:
  - # 1
    frequency:    0.1714634434
  - # 2
    frequency:    0.1886328030
  - # 3
    frequency:    0.2801394139
  - # 4
    frequency:    1.3251310798
  - # 5
    frequency:    1.3314452540
  - # 6
    frequency:    3.3544492260

- q-position: [    0.0300000,    0.0150000,    0.0450000 ]
  distance:    0.0103821
  band:
  - # 1
    frequency:    0.2043559961
  - # 2
    frequency:    0.2247745855
  - # 3
    frequency:    0.3356621611
  - # 4
    frequency:    1.3458265359
  - # 5
    frequency:    1.3548521820
  - # 6
    frequency:    3.3572112071

- q-position: [    0.0350000,    0.0175000,    0.0525000 ]
  distance:    0.0121125
  band:
  - # 1
    frequency:    0.2365423436
  - # 2
    frequency:    0.2601462544
  - # 3
    frequency:    0.3909156275
  - # 4
    frequency:    1.3695844755
  - # 5
    frequency:    1.3817618515
  - # 6
    frequency:    3.3603753737

- q-position: [    0.0400000,    0.0200000,    0.0600000 ]
  distance:    0.0138428
  band:
  - # 1
    frequency:    0.2679490885
  - # 2
    frequency:    0.2946884438
  - # 3
    frequency:    0.4458618986
  - # 4
    frequency:    1.3960992256
  - # 5
    frequency:    1.4118431854
  - # 6
    frequency:    3.3638937445

- q-position: [    0.0450000,    0.0225000,    0.0675000 ]
  distance:    0.0155732
  band:
  - # 1
    frequency:    0.2985161602
  - # 2
    frequency:    0.3283615989
  - # 3
    frequency:    0.5004653553
  - # 4
    frequency:    1.4250473084
  - # 5
    frequency:    1.4447450701
  - # 6
    frequency:    3.3677124534

- q-position: [    0.0500000,    0.0250000,    0.0750000 ]
  distance:    0.0173036
  band:
  - # 1
    frequency:    0.3281955712
  - # 2
    frequency:    0.3611432909
  - # 3
    frequency:    0.5546927069
  - # 4
    frequency:    1.4560957736
  - # 5
    frequency:    1.4801058039
  - # 6
    frequency:    3.3717723406

- q-position: [    0.0550000,    0.0275000,    0.0825000 ]
  distance:    0.0190339
  band:
  - # 1
    frequency:    0.3569498510
  - # 2
    frequency:    0.3930250472
  - # 3
    frequency:    0.6085129466
  - # 4
    frequency:    1.4889096617
  - # 5
    frequency:    1.5175617260
  - # 6
    frequency:    3.3760095913

- q-position: [    0.0600000,    0.0300000,    0.0900000 ]
  distance:    0.0207643
  band:
  - # 1
    frequency:    0.3847504105
  - # 2
    frequency:    0.4240091385
  - # 3
    frequency:    0.6618972578
  - # 4
    frequency:    1.5231583760
  - # 5
    frequency:    1.5567546782
  - # 6
    frequency:    3.3803564133

- q-position: [    0.0650000,    0.0325000,    0.0975000 ]
  distance:    0.0224946
  band:
  - # 1
    frequency:    0.4115760188
  - # 2
    frequency:    0.4541056509
  - # 3
    frequency:    0.7148188843
  - # 4
    frequency:    1.5585208722
  - # 5
    frequency:    1.5973381104
  - # 6
    frequency:    3.3847417427

- q-position: [    0.0700000,    0.0350000,    0.1050000 ]
  distance:    0.0242250
  band:
  - # 1
    frequency:    0.4374115106
  - # 2
    frequency:    0.4833300436
  - # 3
    frequency:    0.7672529716
  - # 4
    frequency:    1.5946896794
  - # 5
    frequency:    1.6389817879
  - # 6
    frequency:    3.3890919695

- q-position: [    0.0750000,    0.0375000,    0.1125000 ]
  distance:    0.0259553
  band:
  - # 1
    frequency:    0.4622467762
  - # 2
    frequency:    0.5117012736
  - # 3
    frequency:    0.8191763807
  - # 4
    frequency:    1.6313738404
  - # 5
    frequency:    1.6813751807
  - # 6
    frequency:    3.3933316747

- q-position: [    0.0800000,    0.0400000,    0.1200000 ]
  distance:    0.0276857
  band:
  - # 1
    frequency:    0.4860760429
  - # 2
    frequency:    0.5392404865
  - # 3
    frequency:    0.8705674760
  - # 4
    frequency:    1.6683009141
  - # 5
    frequency:    1.7242296885
  - # 6
    frequency:    3.3973843685

- q-position: [    0.0850000,    0.0425000,    0.1275000 ]
  distance:    0.0294161
  band:
  - # 1
    frequency:    0.5088974213
  - # 2
    frequency:    0.5659702094
  - # 3
    frequency:    0.9214058843
  - # 4
    frequency:    1.7052181963
  - # 5
    frequency:    1.7672799024
  - # 6
    frequency:    3.4011732248

- q-position: [    0.0900000,    0.0450000,    0.1350000 ]
  distance:    0.0311464
  band:
  - # 1
    frequency:    0.5307126731
  - # 2
    frequency:    0.5919139535
  - # 3
    frequency:    0.9716722254
  - # 4
    frequency:    1.7418933210
  - # 5
    frequency:    1.8102841057
  - # 6
    frequency:    3.4046218035

- q-position: [    0.0950000,    0.0475000,    0.1425000 ]
  distance:    0.0328768
  band:
  - # 1
    frequency:    0.5515271502
  - # 2
    frequency:    0.6170961263
  - # 3
    frequency:    1.0213478128
  - # 4
    frequency:    1.7781143906
  - # 5
    frequency:    1.8530242071
  - # 6
    frequency:    3.4076547552

- q-position: [    0.1000000,    0.0500000,    0.1500000 ]
  distance:    0.0346071
  band:
  - # 1
    frequency:    0.5713498541
  - # 2
    frequency:    0.6415421558
  - # 3
    frequency:    1.0704143265
  - # 4
    frequency:    1.8136897609
  - # 5
    frequency:    1.8953052711
  - # 6
    frequency:    3.4101985041

- q-position: [    0.1050000,    0.0525000,    0.1575000 ]
  distance:    0.0363375
  band:
  - # 1
    frequency:    0.5901935695
  - # 2
    frequency:    0.6652787427
  - # 3
    frequency:    1.1188534578
  - # 4
    frequency:    1.8484475880
  - # 5
    frequency:    1.9369547804
  - # 6
    frequency:    3.4121819044

- q-position: [    0.1100000,    0.0550000,    0.1650000 ]
  distance:    0.0380678
  band:
  - # 1
    frequency:    0.6080750339
  - # 2
    frequency:    0.6883341721
  - # 3
    frequency:    1.1666465301
  - # 4
    frequency:    1.8822352182
  - # 5
    frequency:    1.9778217340
  - # 6
    frequency:    3.4135368683

- q-position: [    0.1150000,    0.0575000,    0.1725000 ]
  distance:    0.0397982
  band:
  - # 1
    frequency:    0.6250151114
  - # 2
    frequency:    0.7107386303
  - # 3
    frequency:    1.2137740977
  - # 4
    frequency:    1.9149184833
  - # 5
    frequency:    2.0177756564
  - # 6
    frequency:    3.4141989625

- q-position: [    0.1200000,    0.0600000,    0.1800000 ]
  distance:    0.0415285
  band:
  - # 1
    frequency:    0.6410389445
  - # 2
    frequency:    0.7325244846
  - # 3
    frequency:    1.2602155275
  - # 4
    frequency:    1.9463809459
  - # 5
    frequency:    2.0567055713
  - # 6
    frequency:    3.4141079735

- q-position: [    0.1250000,    0.0625000,    0.1875000 ]
  distance:    0.0432589
  band:
  - # 1
    frequency:    0.6561760660
  - # 2
    frequency:    0.7537264990
  - # 3
    frequency:    1.3059485671
  - # 4
    frequency:    1.9765231265
  - # 5
    frequency:    2.0945189752
  - # 6
    frequency:    3.4132084396

- q-position: [    0.1300000,    0.0650000,    0.1950000 ]
  distance:    0.0449893
  band:
  - # 1
    frequency:    0.6704604544
  - # 2
    frequency:    0.7743819619
  - # 3
    frequency:    1.3509489045
  - # 4
    frequency:    2.0052617313
  - # 5
    frequency:    2.1311408292
  - # 6
    frequency:    3.4114501517

- q-position: [    0.1350000,    0.0675000,    0.2025000 ]
  distance:    0.0467196
  band:
  - # 1
    frequency:    0.6839305238
  - # 2
    frequency:    0.7945307148
  - # 3
    frequency:    1.3951897240
  - # 4
    frequency:    2.0325288933
  - # 5
    frequency:    2.1665125821
  - # 6
    frequency:    3.4087886227

- q-position: [    0.1400000,    0.0700000,    0.2100000 ]
  distance:    0.0484500
  band:
  - # 1
    frequency:    0.6966290372
  - # 2
    frequency:    0.8142150715
  - # 3
    frequency:    1.4386412638
  - # 4
    frequency:    2.0582714327
  - # 5
    frequency:    2.2005912251
  - # 6
    frequency:    3.4051855270

- q-position: [    0.1450000,    0.0725000,    0.2175000 ]
  distance:    0.0501803
  band:
  - # 1
    frequency:    0.7086029394
  - # 2
    frequency:    0.8334796264
  - # 3
    frequency:    1.4812703813
  - # 4
    frequency:    2.0824501373
  - # 5
    frequency:    2.2333483776
  - # 6
    frequency:    3.4006091129

- q-position: [    0.1500000,    0.0750000,    0.2250000 ]
  distance:    0.0519107
  band:
  - # 1
    frequency:    0.7199031041
  - # 2
    frequency:    0.8523709494
  - # 3
    frequency:    1.5230401323
  - # 4
    frequency:    2.1050390630
  - # 5
    frequency:    2.2647693955
  - # 6
    frequency:    3.3950345882

- q-position: [    0.1550000,    0.0775000,    0.2325000 ]
  distance:    0.0536410
  band:
  - # 1
    frequency:    0.7305839910
  - # 2
    frequency:    0.8709371732
  - # 3
    frequency:    1.5639093714
  - # 4
    frequency:    2.1260248506
  - # 5
    frequency:    2.2948524954
  - # 6
    frequency:    3.3884444831

- q-position: [    0.1600000,    0.0800000,    0.2400000 ]
  distance:    0.0553714
  band:
  - # 1
    frequency:    0.7407032153
  - # 2
    frequency:    0.8892274769
  - # 3
    frequency:    1.6038323838
  - # 4
    frequency:    2.1454060546
  - # 5
    frequency:    2.3236078813
  - # 6
    frequency:    3.3808289908

- q-position: [    0.1650000,    0.0825000,    0.2475000 ]
  distance:    0.0571017
  band:
  - # 1
    frequency:    0.7503210267
  - # 2
    frequency:    0.9072914771
  - # 3
    frequency:    1.6427585582
  - # 4
    frequency:    2.1631924799
  - # 5
    frequency:    2.3510568601
  - # 6
    frequency:    3.3721862888

- q-position: [    0.1700000,    0.0850000,    0.2550000 ]
  distance:    0.0588321
  band:
  - # 1
    frequency:    0.7594997028
  - # 2
    frequency:    0.9251785361
  - # 3
    frequency:    1.6806321157
  - # 4
    frequency:    2.1794045212
  - # 5
    frequency:    2.3772309324
  - # 6
    frequency:    3.3625228417

- q-position: [    0.1750000,    0.0875000,    0.2625000 ]
  distance:    0.0605625
  band:
  - # 1
    frequency:    0.7683028618
  - # 2
    frequency:    0.9429370029
  - # 3
    frequency:    1.7173919118
  - # 4
    frequency:    2.1940725005
  - # 5
    frequency:    2.4021708374
  - # 6
    frequency:    3.3518536862

- q-position: [    0.1800000,    0.0900000,    0.2700000 ]
  distance:    0.0622928
  band:
  - # 1
    frequency:    0.7767947015
  - # 2
    frequency:    0.9606134021
  - # 3
    frequency:    1.7529713322
  - # 4
    frequency:    2.2072359987
  - # 5
    frequency:    2.4259255354
  - # 6
    frequency:    3.3402026974

- q-position: [    0.1850000,    0.0925000,    0.2775000 ]
  distance:    0.0640232
  band:
  - # 1
    frequency:    0.7850391762
  - # 2
    frequency:    0.9782515889
  - # 3
    frequency:    1.7872983094
  - # 4
    frequency:    2.2189431761
  - # 5
    frequency:    2.4485511027
  - # 6
    frequency:    3.3276028341

- q-position: [    0.1900000,    0.0950000,    0.2850000 ]
  distance:    0.0657535
  band:
  - # 1
    frequency:    0.7930991246
  - # 2
    frequency:    0.9958918897
  - # 3
    frequency:    1.8202954879
  - # 4
    frequency:    2.2292500806
  - # 5
    frequency:    2.4701095179
  - # 6
    frequency:    3.3140963583

- q-position: [    0.1950000,    0.0975000,    0.2925000 ]
  distance:    0.0674839
  band:
  - # 1
    frequency:    0.8010353658
  - # 2
    frequency:    1.0135702474
  - # 3
    frequency:    1.8518805750
  - # 4
    frequency:    2.2382199383
  - # 5
    frequency:    2.4906673162
  - # 6
    frequency:    3.2997350206

- q-position: [    0.2000000,    0.1000000,    0.3000000 ]
  distance:    0.0692142
  band:
  - # 1
    frequency:    0.8089057828
  - # 2
    frequency:    1.0313173913
  - # 3
    frequency:    1.8819669092
  - # 4
    frequency:    2.2459224270
  - # 5
    frequency:    2.5102940927
  - # 6
    frequency:    3.2845801992

- q-position: [    0.2050000,    0.1025000,    0.3075000 ]
  distance:    0.0709446
  band:
  - # 1
    frequency:    0.8167644157
  - # 2
    frequency:    1.0491580506
  - # 3
    frequency:    1.9104642834
  - # 4
    frequency:    2.2524329294
  - # 5
    frequency:    2.5290608420
  - # 6
    frequency:    3.2687029739

- q-position: [    0.2100000,    0.1050000,    0.3150000 ]
  distance:    0.0726749
  band:
  - # 1
    frequency:    0.8246605876
  - # 2
    frequency:    1.0671102279
  - # 3
    frequency:    1.9372800510
  - # 4
    frequency:    2.2578317668
  - # 5
    frequency:    2.5470381372
  - # 6
    frequency:    3.2521841122

- q-position: [    0.2150000,    0.1075000,    0.3225000 ]
  distance:    0.0744053
  band:
  - # 1
    frequency:    0.8326380882
  - # 2
    frequency:    1.0851845467
  - # 3
    frequency:    1.9623205347
  - # 4
    frequency:    2.2622034132
  - # 5
    frequency:    2.5642941666
  - # 6
    frequency:    3.2351139319

- q-position: [    0.2200000,    0.1100000,    0.3300000 ]
  distance:    0.0761357
  band:
  - # 1
    frequency:    0.8407344393
  - # 2
    frequency:    1.1033836849
  - # 3
    frequency:    1.9854927407
  - # 4
    frequency:    2.2656356916
  - # 5
    frequency:    2.5808926766
  - # 6
    frequency:    3.2175920015

- q-position: [    0.2250000,    0.1125000,    0.3375000 ]
  distance:    0.0778660
  band:
  - # 1
    frequency:    0.8489802637
  - # 2
    frequency:    1.1217019000
  - # 3
    frequency:    2.0067063622
  - # 4
    frequency:    2.2682189545
  - # 5
    frequency:    2.5968908969
  - # 6
    frequency:    3.1997266234

- q-position: [    0.2300000,    0.1150000,    0.3450000 ]
  distance:    0.0795964
  band:
  - # 1
    frequency:    0.8573987791
  - # 2
    frequency:    1.1401246494
  - # 3
    frequency:    2.0258760354
  - # 4
    frequency:    2.2700452523
  - # 5
    frequency:    2.6123375553
  - # 6
    frequency:    3.1816340429

- q-position: [    0.2350000,    0.1175000,    0.3525000 ]
  distance:    0.0813267
  band:
  - # 1
    frequency:    0.8660054316
  - # 2
    frequency:    1.1586283036
  - # 3
    frequency:    2.0429237917
  - # 4
    frequency:    2.2712074938
  - # 5
    frequency:    2.6272711169
  - # 6
    frequency:    3.1634373139

- q-position: [    0.2400000,    0.1200000,    0.3600000 ]
  distance:    0.0830571
  band:
  - # 1
    frequency:    0.8748076811
  - # 2
    frequency:    1.1771799457
  - # 3
    frequency:    2.0577816397
  - # 4
    frequency:    2.2717986046
  - # 5
    frequency:    2.6417183915
  - # 6
    frequency:    3.1452647566

- q-position: [    0.2450000,    0.1225000,    0.3675000 ]
  distance:    0.0847874
  band:
  - # 1
    frequency:    0.8838049450
  - # 2
    frequency:    1.1957372451
  - # 3
    frequency:    2.0703942110
  - # 4
    frequency:    2.2719106890
  - # 5
    frequency:    2.6556936470
  - # 6
    frequency:    3.1272479479

- q-position: [    0.2500000,    0.1250000,    0.3750000 ]
  distance:    0.0865178
  band:
  - # 1
    frequency:    0.8929887007
  - # 2
    frequency:    1.2142483920
  - # 3
    frequency:    2.0807214127
  - # 4
    frequency:    2.2716342041
  - # 5
    frequency:    2.6691983349
  - # 6
    frequency:    3.1095192112

- q-position: [    0.2550000,    0.1275000,    0.3825000 ]
  distance:    0.0882482
  band:
  - # 1
    frequency:    0.9023427423
  - # 2
    frequency:    1.2326520727
  - # 3
    frequency:    2.0887410446
  - # 4
    frequency:    2.2710571525
  - # 5
    frequency:    2.6822214793
  - # 6
    frequency:    3.0922086088

- q-position: [    0.2600000,    0.1300000,    0.3900000 ]
  distance:    0.0899785
  band:
  - # 1
    frequency:    0.9118435820
  - # 2
    frequency:    1.2508774650
  - # 3
    frequency:    2.0944513487
  - # 4
    frequency:    2.2702643047
  - # 5
    frequency:    2.6947407101
  - # 6
    frequency:    3.0754405024

- q-position: [    0.2650000,    0.1325000,    0.3975000 ]
  distance:    0.0917089
  band:
  - # 1
    frequency:    0.9214609835
  - # 2
    frequency:    1.2688442340
  - # 3
    frequency:    2.0978734589
  - # 4
    frequency:    2.2693364578
  - # 5
    frequency:    2.7067238458
  - # 6
    frequency:    3.0593298232

- q-position: [    0.2700000,    0.1350000,    0.4050000 ]
  distance:    0.0934392
  band:
  - # 1
    frequency:    0.9311586087
  - # 2
    frequency:    1.2864625060
  - # 3
    frequency:    2.0990536951
  - # 4
    frequency:    2.2683497436
  - # 5
    frequency:    2.7181308597
  - # 6
    frequency:    3.0439782800

- q-position: [    0.2750000,    0.1375000,    0.4125000 ]
  distance:    0.0951696
  band:
  - # 1
    frequency:    0.9408947598
  - # 2
    frequency:    1.3036328072
  - # 3
    frequency:    2.0980656116
  - # 4
    frequency:    2.2673749923
  - # 5
    frequency:    2.7289160066
  - # 6
    frequency:    3.0294708242

- q-position: [    0.2800000,    0.1400000,    0.4200000 ]
  distance:    0.0968999
  band:
  - # 1
    frequency:    0.9506231959
  - # 2
    frequency:    1.3202459622
  - # 3
    frequency:    2.0950116693
  - # 4
    frequency:    2.2664771644
  - # 5
    frequency:    2.7390298524
  - # 6
    frequency:    3.0158727518

- q-position: [    0.2850000,    0.1425000,    0.4275000 ]
  distance:    0.0986303
  band:
  - # 1
    frequency:    0.9602940029
  - # 2
    frequency:    1.3361829620
  - # 3
    frequency:    2.0900243676
  - # 4
    frequency:    2.2657148584
  - # 5
    frequency:    2.7484209290
  - # 6
    frequency:    3.0032278573

- q-position: [    0.2900000,    0.1450000,    0.4350000 ]
  distance:    0.1003606
  band:
  - # 1
    frequency:    0.9698544975
  - # 2
    frequency:    1.3513148436
  - # 3
    frequency:    2.0832666686
  - # 4
    frequency:    2.2651399022
  - # 5
    frequency:    2.7570367482
  - # 6
    frequency:    2.9915580250

- q-position: [    0.2950000,    0.1475000,    0.4425000 ]
  distance:    0.1020910
  band:
  - # 1
    frequency:    0.9792501441
  - # 2
    frequency:    1.3655026570
  - # 3
    frequency:    2.0749315559
  - # 4
    frequency:    2.2647970368
  - # 5
    frequency:    2.7648239436
  - # 6
    frequency:    2.9808645494

- q-position: [    0.3000000,    0.1500000,    0.4500000 ]
  distance:    0.1038214
  band:
  - # 1
    frequency:    0.9884254697
  - # 2
    frequency:    1.3785976609
  - # 3
    frequency:    2.0652405994
  - # 4
    frequency:    2.2647236966
  - # 5
    frequency:    2.7717273929
  - # 6
    frequency:    2.9711313125

- q-position: [    0.3050000,    0.1525000,    0.4575000 ]
  distance:    0.1055517
  band:
  - # 1
    frequency:    0.9973249594
  - # 2
    frequency:    1.3904419583
  - # 3
    frequency:    2.0544414110
  - # 4
    frequency:    2.2649498912
  - # 5
    frequency:    2.7776883250
  - # 6
    frequency:    2.9623296992

- q-position: [    0.3100000,    0.1550000,    0.4650000 ]
  distance:    0.1072821
  band:
  - # 1
    frequency:    1.0058939190
  - # 2
    frequency:    1.4008698784
  - # 3
    frequency:    2.0428038650
  - # 4
    frequency:    2.2654981902
  - # 5
    frequency:    2.7826416690
  - # 6
    frequency:    2.9544248029

- q-position: [    0.3150000,    0.1575000,    0.4725000 ]
  distance:    0.1090124
  band:
  - # 1
    frequency:    1.0140792955
  - # 2
    frequency:    1.4097105006
  - # 3
    frequency:    2.0306149107
  - # 4
    frequency:    2.2663838111
  - # 5
    frequency:    2.7865132670
  - # 6
    frequency:    2.9473820612

- q-position: [    0.3200000,    0.1600000,    0.4800000 ]
  distance:    0.1107428
  band:
  - # 1
    frequency:    1.0218304440
  - # 2
    frequency:    1.4167917709
  - # 3
    frequency:    2.0181717553
  - # 4
    frequency:    2.2676148093
  - # 5
    frequency:    2.7892180314
  - # 6
    frequency:    2.9411730010

- q-position: [    0.3250000,    0.1625000,    0.4875000 ]
  distance:    0.1124731
  band:
  - # 1
    frequency:    1.0290998357
  - # 2
    frequency:    1.4219466252
  - # 3
    frequency:    2.0057732021
  - # 4
    frequency:    2.2691923629
  - # 5
    frequency:    2.7906605125
  - # 6
    frequency:    2.9357784109

- q-position: [    0.3300000,    0.1650000,    0.4950000 ]
  distance:    0.1142035
  band:
  - # 1
    frequency:    1.0358437014
  - # 2
    frequency:    1.4250213315
  - # 3
    frequency:    1.9937090802
  - # 4
    frequency:    2.2711111491
  - # 5
    frequency:    2.7907393556
  - # 6
    frequency:    2.9311873053

- q-position: [    0.3350000,    0.1675000,    0.5025000 ]
  distance:    0.1159338
  band:
  - # 1
    frequency:    1.0420226072
  - # 2
    frequency:    1.4258858322
  - # 3
    frequency:    1.9822480675
  - # 4
    frequency:    2.2733598008
  - # 5
    frequency:    2.7893562906
  - # 6
    frequency:    2.9273909356

- q-position: [    0.3400000,    0.1700000,    0.5100000 ]
  distance:    0.1176642
  band:
  - # 1
    frequency:    1.0476019618
  - # 2
    frequency:    1.4244452209
  - # 3
    frequency:    1.9716248010
  - # 4
    frequency:    2.2759214342
  - # 5
    frequency:    2.7864284581
  - # 6
    frequency:    2.9243730073

- q-position: [    0.3450000,    0.1725000,    0.5175000 ]
  distance:    0.1193946
  band:
  - # 1
    frequency:    1.0525524530
  - # 2
    frequency:    1.4206507754
  - # 3
    frequency:    1.9620278346
  - # 4
    frequency:    2.2787742352
  - # 5
    frequency:    2.7819007098
  - # 6
    frequency:    2.9220994663

- q-position: [    0.3500000,    0.1750000,    0.5250000 ]
  distance:    0.1211249
  band:
  - # 1
    frequency:    1.0568504166
  - # 2
    frequency:    1.4145084873
  - # 3
    frequency:    1.9535904545
  - # 4
    frequency:    2.2818920912
  - # 5
    frequency:    2.7757536463
  - # 6
    frequency:    2.9205121301

- q-position: [    0.3550000,    0.1775000,    0.5325000 ]
  distance:    0.1228553
  band:
  - # 1
    frequency:    1.0604781378
  - # 2
    frequency:    1.4060831107
  - # 3
    frequency:    1.9463862631
  - # 4
    frequency:    2.2852452548
  - # 5
    frequency:    2.7680047533
  - # 6
    frequency:    2.9195288537

- q-position: [    0.3600000,    0.1800000,    0.5400000 ]
  distance:    0.1245856
  band:
  - # 1
    frequency:    1.0634240873
  - # 2
    frequency:    1.3954965623
  - # 3
    frequency:    1.9404306290
  - # 4
    frequency:    2.2888010256
  - # 5
    frequency:    2.7587032111
  - # 6
    frequency:    2.9190497130

- q-position: [    0.3650000,    0.1825000,    0.5475000 ]
  distance:    0.1263160
  band:
  - # 1
    frequency:    1.0656830949
  - # 2
    frequency:    1.3829208010
  - # 3
    frequency:    1.9356878029
  - # 4
    frequency:    2.2925244347
  - # 5
    frequency:    2.7479214465
  - # 6
    frequency:    2.9189661934

- q-position: [    0.3700000,    0.1850000,    0.5550000 ]
  distance:    0.1280463
  band:
  - # 1
    frequency:    1.0672564633
  - # 2
    frequency:    1.3685666103
  - # 3
    frequency:    1.9320822154
  - # 4
    frequency:    2.2963789216
  - # 5
    frequency:    2.7357467885
  - # 6
    frequency:    2.9191700683

- q-position: [    0.3750000,    0.1875000,    0.5625000 ]
  distance:    0.1297767
  band:
  - # 1
    frequency:    1.0681520221
  - # 2
    frequency:    1.3526704536
  - # 3
    frequency:    1.9295117307
  - # 4
    frequency:    2.3003269877
  - # 5
    frequency:    2.7222752513
  - # 6
    frequency:    2.9195599869

- q-position: [    0.3800000,    0.1900000,    0.5700000 ]
  distance:    0.1315070
  band:
  - # 1
    frequency:    1.0683841257
  - # 2
    frequency:    1.3354815786
  - # 3
    frequency:    1.9278606326
  - # 4
    frequency:    2.3043308189
  - # 5
    frequency:    2.7076078979
  - # 6
    frequency:    2.9200453475

- q-position: [    0.3850000,    0.1925000,    0.5775000 ]
  distance:    0.1332374
  band:
  - # 1
    frequency:    1.0679735942
  - # 2
    frequency:    1.3172509712
  - # 3
    frequency:    1.9270107048
  - # 4
    frequency:    2.3083528650
  - # 5
    frequency:    2.6918492935
  - # 6
    frequency:    2.9205479707

- q-position: [    0.3900000,    0.1950000,    0.5850000 ]
  distance:    0.1349678
  band:
  - # 1
    frequency:    1.0669475981
  - # 2
    frequency:    1.2982229616
  - # 3
    frequency:    1.9268495685
  - # 4
    frequency:    2.3123563707
  - # 5
    frequency:    2.6751072937
  - # 6
    frequency:    2.9210023473

- q-position: [    0.3950000,    0.1975000,    0.5925000 ]
  distance:    0.1366981
  band:
  - # 1
    frequency:    1.0653394843
  - # 2
    frequency:    1.2786295835
  - # 3
    frequency:    1.9272761476
  - # 4
    frequency:    2.3163058501
  - # 5
    frequency:    2.6574935155
  - # 6
    frequency:    2.9213551235

- q-position: [    0.4000000,    0.2000000,    0.6000000 ]
  distance:    0.1384285
  band:
  - # 1
    frequency:    1.0631885429
  - # 2
    frequency:    1.2586873344
  - # 3
    frequency:    1.9282035852
  - # 4
    frequency:    2.3201675022
  - # 5
    frequency:    2.6391240627
  - # 6
    frequency:    2.9215642678

- q-position: [    0.4050000,    0.2025000,    0.6075000 ]
  distance:    0.1401588
  band:
  - # 1
    frequency:    1.0605397121
  - # 2
    frequency:    1.2385957929
  - # 3
    frequency:    1.9295601349
  - # 4
    frequency:    2.3239095636
  - # 5
    frequency:    2.6201202639
  - # 6
    frequency:    2.9215981666

- q-position: [    0.4100000,    0.2050000,    0.6150000 ]
  distance:    0.1418892
  band:
  - # 1
    frequency:    1.0574432160
  - # 2
    frequency:    1.2185375273
  - # 3
    frequency:    1.9312885638
  - # 4
    frequency:    2.3275025988
  - # 5
    frequency:    2.6006093196
  - # 6
    frequency:    2.9214347671

- q-position: [    0.4150000,    0.2075000,    0.6225000 ]
  distance:    0.1436195
  band:
  - # 1
    frequency:    1.0539541347
  - # 2
    frequency:    1.1986788179
  - # 3
    frequency:    1.9333445241
  - # 4
    frequency:    2.3309197268
  - # 5
    frequency:    2.5807248293
  - # 6
    frequency:    2.9210608087

- q-position: [    0.4200000,    0.2100000,    0.6300000 ]
  distance:    0.1453499
  band:
  - # 1
    frequency:    1.0501319009
  - # 2
    frequency:    1.1791708250
  - # 3
    frequency:    1.9356942384
  - # 4
    frequency:    2.3341367871
  - # 5
    frequency:    2.5606072115
  - # 6
    frequency:    2.9204711431

- q-position: [    0.4250000,    0.2125000,    0.6375000 ]
  distance:    0.1470803
  band:
  - # 1
    frequency:    1.0460397213
  - # 2
    frequency:    1.1601509461
  - # 3
    frequency:    1.9383117351
  - # 4
    frequency:    2.3371324474
  - # 5
    frequency:    2.5404040468
  - # 6
    frequency:    2.9196681292

- q-position: [    0.4300000,    0.2150000,    0.6450000 ]
  distance:    0.1488106
  band:
  - # 1
    frequency:    1.0417439201
  - # 2
    frequency:    1.1417441955
  - # 3
    frequency:    1.9411757856
  - # 4
    frequency:    2.3398882564
  - # 5
    frequency:    2.5202703802
  - # 6
    frequency:    2.9186610831

- q-position: [    0.4350000,    0.2175000,    0.6525000 ]
  distance:    0.1505410
  band:
  - # 1
    frequency:    1.0373132053
  - # 2
    frequency:    1.1240645061
  - # 3
    frequency:    1.9442666401
  - # 4
    frequency:    2.3423886454
  - # 5
    frequency:    2.5003690109
  - # 6
    frequency:    2.9174657644

- q-position: [    0.4400000,    0.2200000,    0.6600000 ]
  distance:    0.1522713
  band:
  - # 1
    frequency:    1.0328178582
  - # 2
    frequency:    1.1072158966
  - # 3
    frequency:    1.9475626323
  - # 4
    frequency:    2.3446208852
  - # 5
    frequency:    2.4808707853
  - # 6
    frequency:    2.9161038805

- q-position: [    0.4450000,    0.2225000,    0.6675000 ]
  distance:    0.1540017
  band:
  - # 1
    frequency:    1.0283288511
  - # 2
    frequency:    1.0912934821
  - # 3
    frequency:    1.9510367246
  - # 4
    frequency:    2.3465750012
  - # 5
    frequency:    2.4619548779
  - # 6
    frequency:    2.9146025995

- q-position: [    0.4500000,    0.2250000,    0.6750000 ]
  distance:    0.1557320
  band:
  - # 1
    frequency:    1.0239169018
  - # 2
    frequency:    1.0763843191
  - # 3
    frequency:    1.9546531007
  - # 4
    frequency:    2.3482436545
  - # 5
    frequency:    2.4438089993
  - # 6
    frequency:    2.9129940588

- q-position: [    0.4550000,    0.2275000,    0.6825000 ]
  distance:    0.1574624
  band:
  - # 1
    frequency:    1.0196514746
  - # 2
    frequency:    1.0625680906
  - # 3