14.400
  29.59732   0.00000  -0.00000   0.00000  29.59732   0.00000  -0.00000   0.00000  29.59732
   5.84397   0.00000  -0.00000   0.00000   5.84397   0.00000   0.00000   0.00000   5.84397
  -5.84281   0.00000   0.00000   0.00000  -5.84281   0.00000   0.00000   0.00000  -5.84281
