128  
2    

1    
  0.0000000000000000   0.0070710678118655   0.0070710678118655
   0.0000000000   -0.0188157000   -0.0188157000
   0.0000000000    0.0028248600    0.0028248600
   0.0000000000    0.0005863500    0.0005863500
   0.0000000000    0.0027981700    0.0027981700
   0.0027521300   -0.0002010600    0.0000634500
   0.0001711200    0.0001333700    0.0003068700
  -0.0001712300    0.0003051800    0.0001345300
  -0.0027402900    0.0000667200   -0.0001992700
   0.0003831300   -0.0000545200    0.0002035000
  -0.0000008800   -0.0000375000   -0.0000371500
  -0.0003831300    0.0002035000   -0.0000545200
   0.0000008800   -0.0000371500   -0.0000375000
   0.0027402900   -0.0001992700    0.0000667200
  -0.0027521300    0.0000634500   -0.0002010600
  -0.0001711200    0.0003068700    0.0001333700
   0.0001712300    0.0001345300    0.0003051800
   0.0027521300    0.0000634500   -0.0002010600
   0.0001711200    0.0003068700    0.0001333700
  -0.0001712300    0.0001345300    0.0003051800
  -0.0027402900   -0.0001992700    0.0000667200
   0.0002351300    0.0000706400    0.0000706400
   0.0000000800    0.0000894800    0.0000894800
  -0.0002333400    0.0000711400    0.0000711400
  -0.0000098700    0.0002999700    0.0002999700
   0.0000625400   -0.0001008400    0.0000711600
  -0.0000636500    0.0000724000   -0.0001000400
  -0.0003749600    0.0002792400   -0.0000466800
   0.0003774400   -0.0000470500    0.0002776000
   0.0000000000   -0.0026787300   -0.0026834500
   0.0000000000    0.0041934100    0.0003035800
   0.0000000000    0.0006555500    0.0006532100
   0.0000000000    0.0002965800    0.0042014800
   0.0003831300    0.0002035000   -0.0000545200
  -0.0000008800   -0.0000371500   -0.0000375000
  -0.0003831300   -0.0000545200    0.0002035000
   0.0000008800   -0.0000375000   -0.0000371500
   0.0000625400    0.0000711600   -0.0001008400
  -0.0000636500   -0.0001000400    0.0000724000
  -0.0003749600   -0.0000466800    0.0002792400
   0.0003774400    0.0002776000   -0.0000470500
   0.0000000000   -0.0001796100   -0.0001796100
   0.0000000000   -0.0000957600   -0.0000957600
   0.0000000000    0.0010779800    0.0010779800
   0.0000000000   -0.0000999100   -0.0000999100
   0.0000636500    0.0000724000   -0.0001000400
   0.0003749600    0.0002792400   -0.0000466800
  -0.0003774400   -0.0000470500    0.0002776000
  -0.0000625400   -0.0001008400    0.0000711600
   0.0027402900    0.0000667200   -0.0001992700
  -0.0027521300   -0.0002010600    0.0000634500
  -0.0001711200    0.0001333700    0.0003068700
   0.0001712300    0.0003051800    0.0001345300
   0.0000000000   -0.0026834500   -0.0026787300
   0.0000000000    0.0003035800    0.0041934100
   0.0000000000    0.0006532100    0.0006555500
   0.0000000000    0.0042014800    0.0002965800
   0.0000636500   -0.0001000400    0.0000724000
   0.0003749600   -0.0000466800    0.0002792400
  -0.0003774400    0.0002776000   -0.0000470500
  -0.0000625400    0.0000711600   -0.0001008400
   0.0002333400    0.0000711400    0.0000711400
   0.0000098700    0.0002999700    0.0002999700
  -0.0002351300    0.0000706400    0.0000706400
  -0.0000000800    0.0000894800    0.0000894800
  -0.0004002400   -0.0002115000   -0.0002115000
  -0.0000000700   -0.0001796700   -0.0001796700
   0.0003971300   -0.0002100300   -0.0002100300
  -0.0000145300    0.0006552900    0.0006552900
  -0.0000837500   -0.0000193900   -0.0000958200
   0.0000838600   -0.0000958900   -0.0000197700
   0.0006717800   -0.0001093500    0.0000125700
  -0.0006758000    0.0000124900   -0.0001078400
   0.0000012400    0.0001874500    0.0001883500
   0.0004428000   -0.0003354800    0.0000125200
  -0.0000006000   -0.0001545400   -0.0001536400
  -0.0004447400    0.0000125800   -0.0003377600
   0.0000000000    0.0057840600    0.0006490400
   0.0000000000   -0.0010120600   -0.0005518800
   0.0000000000   -0.0005528100   -0.0010087500
   0.0000000000    0.0006609000    0.0054718000
  -0.0000837500   -0.0000958200   -0.0000193900
   0.0000838600   -0.0000197700   -0.0000958900
   0.0006717800    0.0000125700   -0.0001093500
  -0.0006758000   -0.0001078400    0.0000124900
   0.0000000300   -0.0000120400   -0.0000120400
   0.0000921500   -0.0000621800   -0.0000621800
   0.0000029900   -0.0003180800   -0.0003180800
  -0.0000930600   -0.0000607900   -0.0000607900
   0.0000000000    0.0003347500    0.0003341900
   0.0000000000   -0.0018107700   -0.0003185000
   0.0000000000   -0.0003175400   -0.0018134100
   0.0000000000    0.0003361600    0.0003396100
  -0.0004428000   -0.0003354800    0.0000125200
   0.0000006000   -0.0001545400   -0.0001536400
   0.0004447400    0.0000125800   -0.0003377600
  -0.0000012400    0.0001874500    0.0001883500
   0.0000012400    0.0001883500    0.0001874500
   0.0004428000    0.0000125200   -0.0003354800
  -0.0000006000   -0.0001536400   -0.0001545400
  -0.0004447400   -0.0003377600    0.0000125800
   0.0000000000    0.0003341900    0.0003347500
   0.0000000000   -0.0003185000   -0.0018107700
   0.0000000000   -0.0018134100   -0.0003175400
   0.0000000000    0.0003396100    0.0003361600
  -0.0000921500   -0.0000621800   -0.0000621800
  -0.0000029900   -0.0003180800   -0.0003180800
   0.0000930600   -0.0000607900   -0.0000607900
  -0.0000000300   -0.0000120400   -0.0000120400
  -0.0006717800   -0.0001093500    0.0000125700
   0.0006758000    0.0000124900   -0.0001078400
   0.0000837500   -0.0000193900   -0.0000958200
  -0.0000838600   -0.0000958900   -0.0000197700
   0.0000000000    0.0006490400    0.0057840600
   0.0000000000   -0.0005518800   -0.0010120600
   0.0000000000   -0.0010087500   -0.0005528100
   0.0000000000    0.0054718000    0.0006609000
  -0.0004428000    0.0000125200   -0.0003354800
   0.0000006000   -0.0001536400   -0.0001545400
   0.0004447400   -0.0003377600    0.0000125800
  -0.0000012400    0.0001883500    0.0001874500
  -0.0006717800    0.0000125700   -0.0001093500
   0.0006758000   -0.0001078400    0.0000124900
   0.0000837500   -0.0000958200   -0.0000193900
  -0.0000838600   -0.0000197700   -0.0000958900
   0.0000145300    0.0006552900    0.0006552900
   0.0004002400   -0.0002115000   -0.0002115000
   0.0000000700   -0.0001796700   -0.0001796700
  -0.0003971300   -0.0002100300   -0.0002100300

65   
  0.0000000000000000   0.0070710678118655   0.0070710678118655
  -0.0003976900   -0.0002111700   -0.0002111700
   0.0000043100    0.0006557100    0.0006557100
   0.0003992300   -0.0002099400   -0.0002099400
   0.0000004900   -0.0001784300   -0.0001784300
   0.0000000000    0.0054748200    0.0006708500
   0.0000000000    0.0006393900    0.0057804100
   0.0000000000   -0.0007826700   -0.0007821100
   0.0000000000   -0.0007779000   -0.0007815000
   0.0000007000    0.0001871600    0.0001892300
  -0.0006739600    0.0000115000   -0.0003363200
  -0.0000007800   -0.0001545300   -0.0001554000
   0.0006725800   -0.0003373700    0.0000120400
  -0.0000830300   -0.0000189400   -0.0000954400
  -0.0004431100    0.0000121700   -0.0001106400
   0.0004436100   -0.0001070000    0.0000115500
   0.0000830400   -0.0000955700   -0.0000185700
   0.0000000000    0.0006708500    0.0054748200
   0.0000000000    0.0057804100    0.0006393900
   0.0000000000   -0.0007821100   -0.0007826700
   0.0000000000   -0.0007815000   -0.0007779000
  -0.0000043100    0.0006557100    0.0006557100
  -0.0003992300   -0.0002099400   -0.0002099400
  -0.0000004900   -0.0001784300   -0.0001784300
   0.0003976900   -0.0002111700   -0.0002111700
  -0.0004436100    0.0000115500   -0.0001070000
  -0.0000830400   -0.0000185700   -0.0000955700
   0.0000830300   -0.0000954400   -0.0000189400
   0.0004431100   -0.0001106400    0.0000121700
  -0.0006725800    0.0000120400   -0.0003373700
  -0.0000007000    0.0001892300    0.0001871600
   0.0006739600   -0.0003363200    0.0000115000
   0.0000007800   -0.0001554000   -0.0001545300
   0.0000007000    0.0001892300    0.0001871600
  -0.0006739600   -0.0003363200    0.0000115000
  -0.0000007800   -0.0001554000   -0.0001545300
   0.0006725800    0.0000120400   -0.0003373700
  -0.0004436100   -0.0001070000    0.0000115500
  -0.0000830400   -0.0000955700   -0.0000185700
   0.0000830300   -0.0000189400   -0.0000954400
   0.0004431100    0.0000121700   -0.0001106400
  -0.0000927000   -0.0000619200   -0.0000619200
   0.0000002900   -0.0000123600   -0.0000123600
   0.0000929700   -0.0000621700   -0.0000621700
   0.0000049800   -0.0003176400   -0.0003176400
   0.0000000000    0.0005633800    0.0001055500
   0.0000000000    0.0001071900    0.0005655000
   0.0000000000   -0.0018141300   -0.0003165600
   0.0000000000   -0.0003183600   -0.0018061500
  -0.0000830300   -0.0000954400   -0.0000189400
  -0.0004431100   -0.0001106400    0.0000121700
   0.0004436100    0.0000115500   -0.0001070000
   0.0000830400   -0.0000185700   -0.0000955700
  -0.0006725800   -0.0003373700    0.0000120400
  -0.0000007000    0.0001871600    0.0001892300
   0.0006739600    0.0000115000   -0.0003363200
   0.0000007800   -0.0001545300   -0.0001554000
   0.0000000000    0.0001055500    0.0005633800
   0.0000000000    0.0005655000    0.0001071900
   0.0000000000   -0.0003165600   -0.0018141300
   0.0000000000   -0.0018061500   -0.0003183600
  -0.0000002900   -0.0000123600   -0.0000123600
  -0.0000929700   -0.0000621700   -0.0000621700
  -0.0000049800   -0.0003176400   -0.0003176400
   0.0000927000   -0.0000619200   -0.0000619200
   0.0000000000   -0.0242868900   -0.0242868900
   0.0000000000    0.0012546500    0.0012546500
   0.0000000000    0.0003064100    0.0003064100
   0.0000000000    0.0012270800    0.0012270800
   0.0009458000   -0.0000429200    0.0002978600
   0.0001257900    0.0001340000    0.0002191300
  -0.0001248500    0.0002187200    0.0001342100
  -0.0009414900    0.0002955200   -0.0000423300
   0.0002358000    0.0000168500    0.0000702800
   0.0000002300    0.0000084100    0.0000091500
  -0.0002358000    0.0000702800    0.0000168500
  -0.0000002300    0.0000091500    0.0000084100
   0.0009414900   -0.0000423300    0.0002955200
  -0.0009458000    0.0002978600   -0.0000429200
  -0.0001257900    0.0002191300    0.0001340000
   0.0001248500    0.0001342100    0.0002187200
   0.0009458000    0.0002978600   -0.0000429200
   0.0001257900    0.0002191300    0.0001340000
  -0.0001248500    0.0001342100    0.0002187200
  -0.0009414900   -0.0000423300    0.0002955200
   0.0001629200    0.0000968200    0.0000968200
  -0.0000000100    0.0000924500    0.0000924500
  -0.0001621400    0.0000966700    0.0000966700
  -0.0000143700    0.0002499900    0.0002499900
   0.0000373000   -0.0000287600    0.0000568400
  -0.0000375100    0.0000560500   -0.0000283900
  -0.0003263600    0.0005209300    0.0002212800
   0.0003253400    0.0002223600    0.0005198600
   0.0000000000   -0.0006490100   -0.0006451000
   0.0000000000    0.0044059000    0.0002522700
   0.0000000000    0.0008479400    0.0008447300
   0.0000000000    0.0002477700    0.0043903200
   0.0002358000    0.0000702800    0.0000168500
   0.0000002300    0.0000091500    0.0000084100
  -0.0002358000    0.0000168500    0.0000702800
  -0.0000002300    0.0000084100    0.0000091500
   0.0000373000    0.0000568400   -0.0000287600
  -0.0000375100   -0.0000283900    0.0000560500
  -0.0003263600    0.0002212800    0.0005209300
   0.0003253400    0.0005198600    0.0002223600
   0.0000000000   -0.0001656100   -0.0001656100
   0.0000000000    0.0001938100    0.0001938100
   0.0000000000    0.0010708100    0.0010708100
   0.0000000000    0.0001953700    0.0001953700
   0.0000375100    0.0000560500   -0.0000283900
   0.0003263600    0.0005209300    0.0002212800
  -0.0003253400    0.0002223600    0.0005198600
  -0.0000373000   -0.0000287600    0.0000568400
   0.0009414900    0.0002955200   -0.0000423300
  -0.0009458000   -0.0000429200    0.0002978600
  -0.0001257900    0.0001340000    0.0002191300
   0.0001248500    0.0002187200    0.0001342100
   0.0000000000   -0.0006451000   -0.0006490100
   0.0000000000    0.0002522700    0.0044059000
   0.0000000000    0.0008447300    0.0008479400
   0.0000000000    0.0043903200    0.0002477700
   0.0000375100   -0.0000283900    0.0000560500
   0.0003263600    0.0002212800    0.0005209300
  -0.0003253400    0.0005198600    0.0002223600
  -0.0000373000    0.0000568400   -0.0000287600
   0.0001621400    0.0000966700    0.0000966700
   0.0000143700    0.0002499900    0.0002499900
  -0.0001629200    0.0000968200    0.0000968200
   0.0000000100    0.0000924500    0.0000924500
