mesh: [    48,    48,    48 ]
nqpoint: 2769   
natom:   2      
phonon:
- q-position: [    0.0000000,    0.0000000,    0.0000000 ]
  weight: 1    
  band:
  - # 1
    frequency:    -0.0024888316
  - # 2
    frequency:    -0.0024888316
  - # 3
    frequency:    -0.0024888316
  - # 4
    frequency:     1.2759444542
  - # 5
    frequency:     1.2759444542
  - # 6
    frequency:     1.2759444542

- q-position: [    0.0208333,    0.0000000,    0.0000000 ]
  weight: 8    
  band:
  - # 1
    frequency:     0.1247433888
  - # 2
    frequency:     0.1247433888
  - # 3
    frequency:     0.1712107870
  - # 4
    frequency:     1.2996235050
  - # 5
    frequency:     1.2996235050
  - # 6
    frequency:     3.3496006143

- q-position: [    0.0416667,    0.0000000,    0.0000000 ]
  weight: 8    
  band:
  - # 1
    frequency:     0.2454697610
  - # 2
    frequency:     0.2454697610
  - # 3
    frequency:     0.3406504531
  - # 4
    frequency:     1.3677521390
  - # 5
    frequency:     1.3677521390
  - # 6
    frequency:     3.3547933161

- q-position: [    0.0625000,    0.0000000,    0.0000000 ]
  weight: 8    
  band:
  - # 1
    frequency:     0.3597703147
  - # 2
    frequency:     0.3597703147
  - # 3
    frequency:     0.5065671023
  - # 4
    frequency:     1.4725236153
  - # 5
    frequency:     1.4725236153
  - # 6
    frequency:     3.3635125896

- q-position: [    0.0833333,    0.0000000,    0.0000000 ]
  weight: 8    
  band:
  - # 1
    frequency:     0.4672851619
  - # 2
    frequency:     0.4672851619
  - # 3
    frequency:     0.6674028494
  - # 4
    frequency:     1.6035256968
  - # 5
    frequency:     1.6035256968
  - # 6
    frequency:     3.3757950821

- q-position: [    0.1041667,    0.0000000,    0.0000000 ]
  weight: 8    
  band:
  - # 1
    frequency:     0.5687944512
  - # 2
    frequency:     0.5687944512
  - # 3
    frequency:     0.8218251871
  - # 4
    frequency:     1.7501976093
  - # 5
    frequency:     1.7501976093
  - # 6
    frequency:     3.3915829847

- q-position: [    0.1250000,    0.0000000,    0.0000000 ]
  weight: 8    
  band:
  - # 1
    frequency:     0.6652996017
  - # 2
    frequency:     0.6652996017
  - # 3
    frequency:     0.9687950060
  - # 4
    frequency:     1.9033823383
  - # 5
    frequency:     1.9033823383
  - # 6
    frequency:     3.4106407493

- q-position: [    0.1458333,    0.0000000,    0.0000000 ]
  weight: 8    
  band:
  - # 1
    frequency:     0.7575790744
  - # 2
    frequency:     0.7575790744
  - # 3
    frequency:     1.1076212439
  - # 4
    frequency:     2.0558252861
  - # 5
    frequency:     2.0558252861
  - # 6
    frequency:     3.4324799530

- q-position: [    0.1666667,    0.0000000,    0.0000000 ]
  weight: 8    
  band:
  - # 1
    frequency:     0.8461217071
  - # 2
    frequency:     0.8461217071
  - # 3
    frequency:     1.2380009519
  - # 4
    frequency:     2.2020630212
  - # 5
    frequency:     2.2020630212
  - # 6
    frequency:     3.4563079452

- q-position: [    0.1875000,    0.0000000,    0.0000000 ]
  weight: 8    
  band:
  - # 1
    frequency:     0.9312035298
  - # 2
    frequency:     0.9312035298
  - # 3
    frequency:     1.3600415807
  - # 4
    frequency:     2.3381208194
  - # 5
    frequency:     2.3381208194
  - # 6
    frequency:     3.4810115072

- q-position: [    0.2083333,    0.0000000,    0.0000000 ]
  weight: 8    
  band:
  - # 1
    frequency:     1.0129763394
  - # 2
    frequency:     1.0129763394
  - # 3
    frequency:     1.4742621150
  - # 4
    frequency:     2.4612204723
  - # 5
    frequency:     2.4612204723
  - # 6
    frequency:     3.5051801735

- q-position: [    0.2291667,    0.0000000,    0.0000000 ]
  weight: 8    
  band:
  - # 1
    frequency:     1.0915269821
  - # 2
    frequency:     1.0915269821
  - # 3
    frequency:     1.5815694454
  - # 4
    frequency:     2.5695535796
  - # 5
    frequency:     2.5695535796
  - # 6
    frequency:     3.5271669728

- q-position: [    0.2500000,    0.0000000,    0.0000000 ]
  weight: 8    
  band:
  - # 1
    frequency:     1.1669046581
  - # 2
    frequency:     1.1669046581
  - # 3
    frequency:     1.6832060845
  - # 4
    frequency:     2.6621171814
  - # 5
    frequency:     2.6621171814
  - # 6
    frequency:     3.5451789966

- q-position: [    0.2708333,    0.0000000,    0.0000000 ]
  weight: 8    
  band:
  - # 1
    frequency:     1.2391233678
  - # 2
    frequency:     1.2391233678
  - # 3
    frequency:     1.7806656442
  - # 4
    frequency:     2.7385946110
  - # 5
    frequency:     2.7385946110
  - # 6
    frequency:     3.5573875100

- q-position: [    0.2916667,    0.0000000,    0.0000000 ]
  weight: 8    
  band:
  - # 1
    frequency:     1.3081467154
  - # 2
    frequency:     1.3081467154
  - # 3
    frequency:     1.8755743555
  - # 4
    frequency:     2.7992656741
  - # 5
    frequency:     2.7992656741
  - # 6
    frequency:     3.5620473229

- q-position: [    0.3125000,    0.0000000,    0.0000000 ]
  weight: 8    
  band:
  - # 1
    frequency:     1.3738604860
  - # 2
    frequency:     1.3738604860
  - # 3
    frequency:     1.9695408329
  - # 4
    frequency:     2.8449346424
  - # 5
    frequency:     2.8449346424
  - # 6
    frequency:     3.5576172062

- q-position: [    0.3333333,    0.0000000,    0.0000000 ]
  weight: 8    
  band:
  - # 1
    frequency:     1.4360371430
  - # 2
    frequency:     1.4360371430
  - # 3
    frequency:     2.0639813799
  - # 4
    frequency:     2.8768682280
  - # 5
    frequency:     2.8768682280
  - # 6
    frequency:     3.5428766751

- q-position: [    0.3541667,    0.0000000,    0.0000000 ]
  weight: 8    
  band:
  - # 1
    frequency:     1.4942963435
  - # 2
    frequency:     1.4942963435
  - # 3
    frequency:     2.1599315876
  - # 4
    frequency:     2.8967376756
  - # 5
    frequency:     2.8967376756
  - # 6
    frequency:     3.5170396917

- q-position: [    0.3750000,    0.0000000,    0.0000000 ]
  weight: 8    
  band:
  - # 1
    frequency:     1.5480671216
  - # 2
    frequency:     1.5480671216
  - # 3
    frequency:     2.2578517802
  - # 4
    frequency:     2.9065590489
  - # 5
    frequency:     2.9065590489
  - # 6
    frequency:     3.4798747180

- q-position: [    0.3958333,    0.0000000,    0.0000000 ]
  weight: 8    
  band:
  - # 1
    frequency:     1.5965608839
  - # 2
    frequency:     1.5965608839
  - # 3
    frequency:     2.3574157354
  - # 4
    frequency:     2.9086234833
  - # 5
    frequency:     2.9086234833
  - # 6
    frequency:     3.4318590828

- q-position: [    0.4166667,    0.0000000,    0.0000000 ]
  weight: 8    
  band:
  - # 1
    frequency:     1.6387697057
  - # 2
    frequency:     1.6387697057
  - # 3
    frequency:     2.4572217442
  - # 4
    frequency:     2.9054048265
  - # 5
    frequency:     2.9054048265
  - # 6
    frequency:     3.3744407918

- q-position: [    0.4375000,    0.0000000,    0.0000000 ]
  weight: 8    
  band:
  - # 1
    frequency:     1.6735097513
  - # 2
    frequency:     1.6735097513
  - # 3
    frequency:     2.5542363193
  - # 4
    frequency:     2.8994275829
  - # 5
    frequency:     2.8994275829
  - # 6
    frequency:     3.3106008158

- q-position: [    0.4583333,    0.0000000,    0.0000000 ]
  weight: 8    
  band:
  - # 1
    frequency:     1.6995295162
  - # 2
    frequency:     1.6995295162
  - # 3
    frequency:     2.6424659337
  - # 4
    frequency:     2.8930788260
  - # 5
    frequency:     2.8930788260
  - # 6
    frequency:     3.2462146165

- q-position: [    0.4791667,    0.0000000,    0.0000000 ]
  weight: 8    
  band:
  - # 1
    frequency:     1.7156879220
  - # 2
    frequency:     1.7156879220
  - # 3
    frequency:     2.7099828789
  - # 4
    frequency:     2.8883627333
  - # 5
    frequency:     2.8883627333
  - # 6
    frequency:     3.1930744100

- q-position: [    0.5000000,    0.0000000,    0.0000000 ]
  weight: 4    
  band:
  - # 1
    frequency:     1.7211726524
  - # 2
    frequency:     1.7211726524
  - # 3
    frequency:     2.7368383199
  - # 4
    frequency:     2.8866309627
  - # 5
    frequency:     2.8866309627
  - # 6
    frequency:     3.1710242645

- q-position: [    0.0208333,    0.0208333,    0.0000000 ]
  weight: 6    
  band:
  - # 1
    frequency:     0.1283723816
  - # 2
    frequency:     0.1283723816
  - # 3
    frequency:     0.2176994141
  - # 4
    frequency:     1.3035700574
  - # 5
    frequency:     1.3035700574
  - # 6
    frequency:     3.3528801334

- q-position: [    0.0416667,    0.0208333,    0.0000000 ]
  weight: 24   
  band:
  - # 1
    frequency:     0.2168331167
  - # 2
    frequency:     0.2238456377
  - # 3
    frequency:     0.3464218102
  - # 4
    frequency:     1.3525426236
  - # 5
    frequency:     1.3565766392
  - # 6
    frequency:     3.3578262134

- q-position: [    0.0625000,    0.0208333,    0.0000000 ]
  weight: 24   
  band:
  - # 1
    frequency:     0.3217583923
  - # 2
    frequency:     0.3362290933
  - # 3
    frequency:     0.4936536046
  - # 4
    frequency:     1.4405621072
  - # 5
    frequency:     1.4514273995
  - # 6
    frequency:     3.3648751613

- q-position: [    0.0833333,    0.0208333,    0.0000000 ]
  weight: 24   
  band:
  - # 1
    frequency:     0.4255753771
  - # 2
    frequency:     0.4451106185
  - # 3
    frequency:     0.6451469743
  - # 4
    frequency:     1.5583029891
  - # 5
    frequency:     1.5758421760
  - # 6
    frequency:     3.3750962467

- q-position: [    0.1041667,    0.0208333,    0.0000000 ]
  weight: 24   
  band:
  - # 1
    frequency:     0.5249255932
  - # 2
    frequency:     0.5486010724
  - # 3
    frequency:     0.7949543951
  - # 4
    frequency:     1.6954470282
  - # 5
    frequency:     1.7189010877
  - # 6
    frequency:     3.3886512534

- q-position: [    0.1250000,    0.0208333,    0.0000000 ]
  weight: 24   
  band:
  - # 1
    frequency:     0.6195395737
  - # 2
    frequency:     0.6473568567
  - # 3
    frequency:     0.9399675166
  - # 4
    frequency:     1.8425081782
  - # 5
    frequency:     1.8710031303
  - # 6
    frequency:     3.4054386712

- q-position: [    0.1458333,    0.0208333,    0.0000000 ]
  weight: 24   
  band:
  - # 1
    frequency:     0.7098437812
  - # 2
    frequency:     0.7421389098
  - # 3
    frequency:     1.0784275198
  - # 4
    frequency:     1.9916805242
  - # 5
    frequency:     2.0243831027
  - # 6
    frequency:     3.4251144225

- q-position: [    0.1666667,    0.0208333,    0.0000000 ]
  weight: 24   
  band:
  - # 1
    frequency:     0.7963020770
  - # 2
    frequency:     0.8334166290
  - # 3
    frequency:     1.2093972376
  - # 4
    frequency:     2.1369458987
  - # 5
    frequency:     2.1730974218
  - # 6
    frequency:     3.4470453313

- q-position: [    0.1875000,    0.0208333,    0.0000000 ]
  weight: 24   
  band:
  - # 1
    frequency:     0.8792776350
  - # 2
    frequency:     0.9213995862
  - # 3
    frequency:     1.3325536701
  - # 4
    frequency:     2.2738544395
  - # 5
    frequency:     2.3127513137
  - # 6
    frequency:     3.4702810635

- q-position: [    0.2083333,    0.0208333,    0.0000000 ]
  weight: 24   
  band:
  - # 1
    frequency:     0.9590450834
  - # 2
    frequency:     1.0061372848
  - # 3
    frequency:     1.4480902508
  - # 4
    frequency:     2.3992426315
  - # 5
    frequency:     2.4402017924
  - # 6
    frequency:     3.4935622075

- q-position: [    0.2291667,    0.0208333,    0.0000000 ]
  weight: 24   
  band:
  - # 1
    frequency:     1.0358246490
  - # 2
    frequency:     1.0875971341
  - # 3
    frequency:     1.5566499414
  - # 4
    frequency:     2.5109910525
  - # 5
    frequency:     2.5533189639
  - # 6
    frequency:     3.5153664523

- q-position: [    0.2500000,    0.0208333,    0.0000000 ]
  weight: 24   
  band:
  - # 1
    frequency:     1.1098017078
  - # 2
    frequency:     1.1657076386
  - # 3
    frequency:     1.6592560425
  - # 4
    frequency:     2.6078401026
  - # 5
    frequency:     2.6508129572
  - # 6
    frequency:     3.5339872530

- q-position: [    0.2708333,    0.0208333,    0.0000000 ]
  weight: 24   
  band:
  - # 1
    frequency:     1.1811264987
  - # 2
    frequency:     1.2403723851
  - # 3
    frequency:     1.7572250666
  - # 4
    frequency:     2.6892535326
  - # 5
    frequency:     2.7321114013
  - # 6
    frequency:     3.5476355748

- q-position: [    0.2916667,    0.0208333,    0.0000000 ]
  weight: 24   
  band:
  - # 1
    frequency:     1.2498972036
  - # 2
    frequency:     1.3114619655
  - # 3
    frequency:     1.8520542424
  - # 4
    frequency:     2.7553150139
  - # 5
    frequency:     2.7972705800
  - # 6
    frequency:     3.5545546557

- q-position: [    0.3125000,    0.0208333,    0.0000000 ]
  weight: 24   
  band:
  - # 1
    frequency:     1.3161307879
  - # 2
    frequency:     1.3787893895
  - # 3
    frequency:     1.9452818634
  - # 4
    frequency:     2.8066456877
  - # 5
    frequency:     2.8469071217
  - # 6
    frequency:     3.5531393370

- q-position: [    0.3333333,    0.0208333,    0.0000000 ]
  weight: 24   
  band:
  - # 1
    frequency:     1.3797255906
  - # 2
    frequency:     1.4420739476
  - # 3
    frequency:     2.0383235259
  - # 4
    frequency:     2.8443342419
  - # 5
    frequency:     2.8821412682
  - # 6
    frequency:     3.5420543941

- q-position: [    0.3541667,    0.0208333,    0.0000000 ]
  weight: 24   
  band:
  - # 1
    frequency:     1.4404195120
  - # 2
    frequency:     1.5008995471
  - # 3
    frequency:     2.1322903374
  - # 4
    frequency:     2.8698736196
  - # 5
    frequency:     2.9045460482
  - # 6
    frequency:     3.5203503018

- q-position: [    0.3750000,    0.0208333,    0.0000000 ]
  weight: 24   
  band:
  - # 1
    frequency:     1.4977485184
  - # 2
    frequency:     1.5546756522
  - # 3
    frequency:     2.2277933256
  - # 4
    frequency:     2.8850993503
  - # 5
    frequency:     2.9160986317
  - # 6
    frequency:     3.4875814218

- q-position: [    0.3958333,    0.0208333,    0.0000000 ]
  weight: 24   
  band:
  - # 1
    frequency:     1.5510125582
  - # 2
    frequency:     1.6026114438
  - # 3
    frequency:     2.3247252563
  - # 4
    frequency:     2.8921234153
  - # 5
    frequency:     2.9191310037
  - # 6
    frequency:     3.4439450154

- q-position: [    0.4166667,    0.0208333,    0.0000000 ]
  weight: 24   
  band:
  - # 1
    frequency:     1.5992601516
  - # 2
    frequency:     1.6437167823
  - # 3
    frequency:     2.4219727233
  - # 4
    frequency:     2.8932543538
  - # 5
    frequency:     2.9162785865
  - # 6
    frequency:     3.3904911923

- q-position: [    0.4375000,    0.0208333,    0.0000000 ]
  weight: 24   
  band:
  - # 1
    frequency:     1.6413082317
  - # 2
    frequency:     1.6768469260
  - # 3
    frequency:     2.5169148212
  - # 4
    frequency:     2.8908897369
  - # 5
    frequency:     2.9104295631
  - # 6
    frequency:     3.3295361560

- q-position: [    0.4583333,    0.0208333,    0.0000000 ]
  weight: 24   
  band:
  - # 1
    frequency:     1.6758170923
  - # 2
    frequency:     1.7008082760
  - # 3
    frequency:     2.6043603434
  - # 4
    frequency:     2.8873643329
  - # 5
    frequency:     2.9046541154
  - # 6
    frequency:     3.2656302585

- q-position: [    0.4791667,    0.0208333,    0.0000000 ]
  weight: 24   
  band:
  - # 1
    frequency:     1.7014345253
  - # 2
    frequency:     1.7145309322
  - # 3
    frequency:     2.6745167367
  - # 4
    frequency:     2.8847432477
  - # 5
    frequency:     2.9017130335
  - # 6
    frequency:     3.2078753924

- q-position: [    0.5000000,    0.0208333,    0.0000000 ]
  weight: 24   
  band:
  - # 1
    frequency:     1.7170000362
  - # 2
    frequency:     1.7172828618
  - # 3
    frequency:     2.7121488855
  - # 4
    frequency:     2.8845723038
  - # 5
    frequency:     2.9011766932
  - # 6
    frequency:     3.1734173924

- q-position: [   -0.4791667,    0.0208333,    0.0000000 ]
  weight: 24   
  band:
  - # 1
    frequency:     1.7087396276
  - # 2
    frequency:     1.7217608616
  - # 3
    frequency:     2.7042893741
  - # 4
    frequency:     2.8876364485
  - # 5
    frequency:     2.8982837189
  - # 6
    frequency:     3.1807023755

- q-position: [   -0.4583333,    0.0208333,    0.0000000 ]
  weight: 24   
  band:
  - # 1
    frequency:     1.6893762655
  - # 2
    frequency:     1.7155205255
  - # 3
    frequency:     2.6542676868
  - # 4
    frequency:     2.8938069157
  - # 5
    frequency:     2.8941266797
  - # 6
    frequency:     3.2251129114

- q-position: [   -0.4375000,    0.0208333,    0.0000000 ]
  weight: 24   
  band:
  - # 1
    frequency:     1.6602154190
  - # 2
    frequency:     1.6986537973
  - # 3
    frequency:     2.5771278740
  - # 4
    frequency:     2.8929648776
  - # 5
    frequency:     2.9020434123
  - # 6
    frequency:     3.2863228584

- q-position: [   -0.4166667,    0.0208333,    0.0000000 ]
  weight: 24   
  band:
  - # 1
    frequency:     1.6225750520
  - # 2
    frequency:     1.6719840963
  - # 3
    frequency:     2.4864554771
  - # 4
    frequency:     2.8938541784
  - # 5
    frequency:     2.9105540136
  - # 6
    frequency:     3.3500214194

- q-position: [   -0.3958333,    0.0208333,    0.0000000 ]
  weight: 24   
  band:
  - # 1
    frequency:     1.5778959822
  - # 2
    frequency:     1.6365845449
  - # 3
    frequency:     2.3902600888
  - # 4
    frequency:     2.8939315506
  - # 5
    frequency:     2.9170490564
  - # 6
    frequency:     3.4089537691

- q-position: [   -0.3750000,    0.0208333,    0.0000000 ]
  weight: 24   
  band:
  - # 1
    frequency:     1.5275427806
  - # 2
    frequency:     1.5935824849
  - # 3
    frequency:     2.2927408087
  - # 4
    frequency:     2.8903171230
  - # 5
    frequency:     2.9190058355
  - # 6
    frequency:     3.4594542970

- q-position: [   -0.3541667,    0.0208333,    0.0000000 ]
  weight: 24   
  band:
  - # 1
    frequency:     1.4726735904
  - # 2
    frequency:     1.5440190135
  - # 3
    frequency:     2.1959723428
  - # 4
    frequency:     2.8803526472
  - # 5
    frequency:     2.9138887646
  - # 6
    frequency:     3.4996803872

- q-position: [   -0.3333333,    0.0208333,    0.0000000 ]
  weight: 24   
  band:
  - # 1
    frequency:     1.4141792437
  - # 2
    frequency:     1.4887751756
  - # 3
    frequency:     2.1007261662
  - # 4
    frequency:     2.8616327824
  - # 5
    frequency:     2.8993096620
  - # 6
    frequency:     3.5288857561

- q-position: [   -0.3125000,    0.0208333,    0.0000000 ]
  weight: 24   
  band:
  - # 1
    frequency:     1.3526751914
  - # 2
    frequency:     1.4285514865
  - # 3
    frequency:     2.0068735419
  - # 4
    frequency:     2.8320408272
  - # 5
    frequency:     2.8731382588
  - # 6
    frequency:     3.5470963392

- q-position: [   -0.2916667,    0.0208333,    0.0000000 ]
  weight: 24   
  band:
  - # 1
    frequency:     1.2885273923
  - # 2
    frequency:     1.3638806631
  - # 3
    frequency:     1.9136375392
  - # 4
    frequency:     2.7897938268
  - # 5
    frequency:     2.8335805679
  - # 6
    frequency:     3.5549321933

- q-position: [   -0.2708333,    0.0208333,    0.0000000 ]
  weight: 24   
  band:
  - # 1
    frequency:     1.2218964887
  - # 2
    frequency:     1.2951566429
  - # 3
    frequency:     1.8197985398
  - # 4
    frequency:     2.7334928906
  - # 5
    frequency:     2.7792404543
  - # 6
    frequency:     3.5534787764

- q-position: [   -0.2500000,    0.0208333,    0.0000000 ]
  weight: 24   
  band:
  - # 1
    frequency:     1.1527883916
  - # 2
    frequency:     1.2226686316
  - # 3
    frequency:     1.7238847605
  - # 4
    frequency:     2.6621781541
  - # 5
    frequency:     2.7091750947
  - # 6
    frequency:     3.5441707853

- q-position: [   -0.2291667,    0.0208333,    0.0000000 ]
  weight: 24   
  band:
  - # 1
    frequency:     1.0811026037
  - # 2
    frequency:     1.1466334695
  - # 3
    frequency:     1.6243501257
  - # 4
    frequency:     2.5753897865
  - # 5
    frequency:     2.6229515832
  - # 6
    frequency:     3.5286754851

- q-position: [   -0.2083333,    0.0208333,    0.0000000 ]
  weight: 24   
  band:
  - # 1
    frequency:     1.0066721574
  - # 2
    frequency:     1.0672221793
  - # 3
    frequency:     1.5197325406
  - # 4
    frequency:     2.4732383468
  - # 5
    frequency:     2.5207107060
  - # 6
    frequency:     3.5087730637

- q-position: [   -0.1875000,    0.0208333,    0.0000000 ]
  weight: 24   
  band:
  - # 1
    frequency:     0.9292907030
  - # 2
    frequency:     0.9845773567
  - # 3
    frequency:     1.4087857676
  - # 4
    frequency:     2.3564906539
  - # 5
    frequency:     2.4032448066
  - # 6
    frequency:     3.4862371806

- q-position: [   -0.1666667,    0.0208333,    0.0000000 ]
  weight: 24   
  band:
  - # 1
    frequency:     0.8487228940
  - # 2
    frequency:     0.8988175382
  - # 3
    frequency:     1.2905822160
  - # 4
    frequency:     2.2266812032
  - # 5
    frequency:     2.2720994109
  - # 6
    frequency:     3.4627225355

- q-position: [   -0.1458333,    0.0208333,    0.0000000 ]
  weight: 24   
  band:
  - # 1
    frequency:     0.7646945227
  - # 2
    frequency:     0.8100234797
  - # 3
    frequency:     1.1645889292
  - # 4
    frequency:     2.0862633450
  - # 5
    frequency:     2.1297122111
  - # 6
    frequency:     3.4396687070

- q-position: [   -0.1250000,    0.0208333,    0.0000000 ]
  weight: 24   
  band:
  - # 1
    frequency:     0.6768621040
  - # 2
    frequency:     0.7182013371
  - # 3
    frequency:     1.0307239739
  - # 4
    frequency:     1.9388161916
  - # 5
    frequency:     1.9796057325
  - # 6
    frequency:     3.4182302178

- q-position: [   -0.1041667,    0.0208333,    0.0000000 ]
  weight: 24   
  band:
  - # 1
    frequency:     0.5847776861
  - # 2
    frequency:     0.6232253906
  - # 3
    frequency:     0.8894072123
  - # 4
    frequency:     1.7893140740
  - # 5
    frequency:     1.8266436799
  - # 6
    frequency:     3.3992407428

- q-position: [   -0.0833333,    0.0208333,    0.0000000 ]
  weight: 24   
  band:
  - # 1
    frequency:     0.4879210348
  - # 2
    frequency:     0.5247968490
  - # 3
    frequency:     0.7416352375
  - # 4
    frequency:     1.6444247749
  - # 5
    frequency:     1.6773247878
  - # 6
    frequency:     3.3832137027

- q-position: [   -0.0625000,    0.0208333,    0.0000000 ]
  weight: 24   
  band:
  - # 1
    frequency:     0.3860424591
  - # 2
    frequency:     0.4225605183
  - # 3
    frequency:     0.5891600904
  - # 4
    frequency:     1.5127009222
  - # 5
    frequency:     1.5399828658
  - # 6
    frequency:     3.3703709138

- q-position: [   -0.0416667,    0.0208333,    0.0000000 ]
  weight: 24   
  band:
  - # 1
    frequency:     0.2806183078
  - # 2
    frequency:     0.3168004604
  - # 3
    frequency:     0.4350489172
  - # 4
    frequency:     1.4043865745
  - # 5
    frequency:     1.4245653907
  - # 6
    frequency:     3.3606692033

- q-position: [   -0.0208333,    0.0208333,    0.0000000 ]
  weight: 12   
  band:
  - # 1
    frequency:     0.1809408801
  - # 2
    frequency:     0.2110856486
  - # 3
    frequency:     0.2860112294
  - # 4
    frequency:     1.3305847535
  - # 5
    frequency:     1.3415176386
  - # 6
    frequency:     3.3537500799

- q-position: [    0.0416667,    0.0416667,    0.0000000 ]
  weight: 6    
  band:
  - # 1
    frequency:     0.2483272553
  - # 2
    frequency:     0.2483272553
  - # 3
    frequency:     0.4341655722
  - # 4
    frequency:     1.3801074094
  - # 5
    frequency:     1.3801074094
  - # 6
    frequency:     3.3664593534

- q-position: [    0.0625000,    0.0416667,    0.0000000 ]
  weight: 24   
  band:
  - # 1
    frequency:     0.3197739151
  - # 2
    frequency:     0.3251976684
  - # 3
    frequency:     0.5524232027
  - # 4
    frequency:     1.4467547715
  - # 5
    frequency:     1.4516819566
  - # 6
    frequency:     3.3742294655

- q-position: [    0.0833333,    0.0416667,    0.0000000 ]
  weight: 24   
  band:
  - # 1
    frequency:     0.4059680857
  - # 2
    frequency:     0.4213051852
  - # 3
    frequency:     0.6829225297
  - # 4
    frequency:     1.5451074996
  - # 5
    frequency:     1.5608372940
  - # 6
    frequency:     3.3822690717

- q-position: [    0.1041667,    0.0416667,    0.0000000 ]
  weight: 24   
  band:
  - # 1
    frequency:     0.4950563170
  - # 2
    frequency:     0.5206143035
  - # 3
    frequency:     0.8178766260
  - # 4
    frequency:     1.6660263469
  - # 5
    frequency:     1.6939546332
  - # 6
    frequency:     3.3921538120

- q-position: [    0.1250000,    0.0416667,    0.0000000 ]
  weight: 24   
  band:
  - # 1
    frequency:     0.5827747522
  - # 2
    frequency:     0.6183786245
  - # 3
    frequency:     0.9527428263
  - # 4
    frequency:     1.8004106736
  - # 5
    frequency:     1.8399643026
  - # 6
    frequency:     3.4045268492

- q-position: [    0.1458333,    0.0416667,    0.0000000 ]
  weight: 24   
  band:
  - # 1
    frequency:     0.6678119115
  - # 2
    frequency:     0.7135196660
  - # 3
    frequency:     1.0845193486
  - # 4
    frequency:     1.9403116620
  - # 5
    frequency:     1.9902372460
  - # 6
    frequency:     3.4194836284

- q-position: [    0.1666667,    0.0416667,    0.0000000 ]
  weight: 24   
  band:
  - # 1
    frequency:     0.7499038221
  - # 2
    frequency:     0.8058714566
  - # 3
    frequency:     1.2112661705
  - # 4
    frequency:     2.0793315184
  - # 5
    frequency:     2.1382058572
  - # 6
    frequency:     3.4367348221

- q-position: [    0.1875000,    0.0416667,    0.0000000 ]
  weight: 24   
  band:
  - # 1
    frequency:     0.8291340015
  - # 2
    frequency:     0.8953847416
  - # 3
    frequency:     1.3318771581
  - # 4
    frequency:     2.2125882737
  - # 5
    frequency:     2.2789742936
  - # 6
    frequency:     3.4556420733

- q-position: [    0.2083333,    0.0416667,    0.0000000 ]
  weight: 24   
  band:
  - # 1
    frequency:     0.9056963069
  - # 2
    frequency:     0.9819608830
  - # 3
    frequency:     1.4459247371
  - # 4
    frequency:     2.3365149832
  - # 5
    frequency:     2.4089712118
  - # 6
    frequency:     3.4752357098

- q-position: [    0.2291667,    0.0416667,    0.0000000 ]
  weight: 24   
  band:
  - # 1
    frequency:     0.9798192000
  - # 2
    frequency:     1.0654540136
  - # 3
    frequency:     1.5535396804
  - # 4
    frequency:     2.4486395809
  - # 5
    frequency:     2.5256827805
  - # 6
    frequency:     3.4942523581

- q-position: [    0.2500000,    0.0416667,    0.0000000 ]
  weight: 24   
  band:
  - # 1
    frequency:     1.0517363859
  - # 2
    frequency:     1.1456983405
  - # 3
    frequency:     1.6553062027
  - # 4
    frequency:     2.5473973324
  - # 5
    frequency:     2.6274653611
  - # 6
    frequency:     3.5111997604

- q-position: [    0.2708333,    0.0416667,    0.0000000 ]
  weight: 24   
  band:
  - # 1
    frequency:     1.1216639807
  - # 2
    frequency:     1.2225217710
  - # 3
    frequency:     1.7521576089
  - # 4
    frequency:     2.6319829696
  - # 5
    frequency:     2.7134204842
  - # 6
    frequency:     3.5244441946

- q-position: [    0.2916667,    0.0416667,    0.0000000 ]
  weight: 24   
  band:
  - # 1
    frequency:     1.1897726786
  - # 2
    frequency:     1.2957372563
  - # 3
    frequency:     1.8452629205
  - # 4
    frequency:     2.7022348115
  - # 5
    frequency:     2.7833125357
  - # 6
    frequency:     3.5323127975

- q-position: [    0.3125000,    0.0416667,    0.0000000 ]
  weight: 24   
  band:
  - # 1
    frequency:     1.2561532494
  - # 2
    frequency:     1.3651117195
  - # 3
    frequency:     1.9358993414
  - # 4
    frequency:     2.7585411267
  - # 5
    frequency:     2.8375121735
  - # 6
    frequency:     3.5332044070

- q-position: [    0.3333333,    0.0416667,    0.0000000 ]
  weight: 24   
  band:
  - # 1
    frequency:     1.3207768750
  - # 2
    frequency:     1.4303170747
  - # 3
    frequency:     2.0253078737
  - # 4
    frequency:     2.8017608665
  - # 5
    frequency:     2.8769527563
  - # 6
    frequency:     3.5257050939

- q-position: [    0.3541667,    0.0416667,    0.0000000 ]
  weight: 24   
  band:
  - # 1
    frequency:     1.3834529233
  - # 2
    frequency:     1.4908733890
  - # 3
    frequency:     2.1145290719
  - # 4
    frequency:     2.8331531423
  - # 5
    frequency:     2.9030926021
  - # 6
    frequency:     3.5087066191

- q-position: [    0.3750000,    0.0416667,    0.0000000 ]
  weight: 24   
  band:
  - # 1
    frequency:     1.4437876328
  - # 2
    frequency:     1.5460996283
  - # 3
    frequency:     2.2042122001
  - # 4
    frequency:     2.8543111633
  - # 5
    frequency:     2.9178820946
  - # 6
    frequency:     3.4815286727

- q-position: [    0.3958333,    0.0416667,    0.0000000 ]
  weight: 24   
  band:
  - # 1
    frequency:     1.5011487700
  - # 2
    frequency:     1.5950896036
  - # 3
    frequency:     2.2943817408
  - # 4
    frequency:     2.8670962206
  - # 5
    frequency:     2.9237405288
  - # 6
    frequency:     3.4440530119

- q-position: [    0.4166667,    0.0416667,    0.0000000 ]
  weight: 24   
  band:
  - # 1
    frequency:     1.5546442213
  - # 2
    frequency:     1.6367286024
  - # 3
    frequency:     2.3841224711
  - # 4
    frequency:     2.8735653834
  - # 5
    frequency:     2.9235527300
  - # 6
    frequency:     3.3968975534

- q-position: [    0.4375000,    0.0416667,    0.0000000 ]
  weight: 24   
  band:
  - # 1
    frequency:     1.6031267365
  - # 2
    frequency:     1.6697622571
  - # 3
    frequency:     2.4710952852
  - # 4
    frequency:     2.8758829664
  - # 5
    frequency:     2.9206916499
  - # 6
    frequency:     3.3417103263

- q-position: [    0.4583333,    0.0416667,    0.0000000 ]
  weight: 24   
  band:
  - # 1