# Sigma = 0.035645
       -0.3589424470        0.0000000000
       -0.3411197663        0.0000000000
       -0.3232970855        0.0000000000
       -0.3054744047        0.0000000000
       -0.2876517239        0.0000000000
       -0.2698290432        0.0000000000
       -0.2520063624        0.0000000000
       -0.2341836816        0.0000000000
       -0.2163610009        0.0000000000
       -0.1985383201        0.0000000001
       -0.1807156393        0.0000000011
       -0.1628929585        0.0000000122
       -0.1450702778        0.0000001018
       -0.1272475970        0.0000006641
       -0.1094249162        0.0000033727
       -0.0916022355        0.0000133394
       -0.0737795547        0.0000410885
       -0.0559568739        0.0000985713
       -0.0381341931        0.0001842135
       -0.0203115124        0.0002685413
       -0.0024888316        0.0003078193
        0.0153338492        0.0002905374
        0.0331565300        0.0002787697
        0.0509792107        0.0004082964
        0.0688018915        0.0008370299
        0.0866245723        0.0016322782
        0.1044472530        0.0026558287
        0.1222699338        0.0036335456
        0.1400926146        0.0044614364
        0.1579152954        0.0054044140
        0.1757379761        0.0068403215
        0.1935606569        0.0087784322
        0.2113833377        0.0107634778
        0.2292060185        0.0123897268
        0.2470286992        0.0138724721
        0.2648513800        0.0159400441
        0.2826740608        0.0191058930
        0.3004967415        0.0231118666
        0.3183194223        0.0271109392
        0.3361421031        0.0304675425
        0.3539647839        0.0334819664
        0.3717874646        0.0372260396
        0.3896101454        0.0424701539
        0.4074328262        0.0488838046
        0.4252555069        0.0556316125
        0.4430781877        0.0626407322
        0.4609008685        0.0706353247
        0.4787235493        0.0798695511
        0.4965462300        0.0898400581
        0.5143689108        0.1008090687
        0.5321915916        0.1146543229
        0.5500142724        0.1334157890
        0.5678369531        0.1578079603
        0.5856596339        0.1878569337
        0.6034823147        0.2240313526
        0.6213049954        0.2666255562
        0.6391276762        0.3142934281
        0.6569503570        0.3642336126
        0.6747730378        0.4146385898
        0.6925957185        0.4670049898
        0.7104183993        0.5254198434
        0.7282410801        0.5934370184
        0.7460637609        0.6722491534
        0.7638864416        0.7619171134
        0.7817091224        0.8633125500
        0.7995318032        0.9778036982
        0.8173544839        1.1048870798
        0.8351771647        1.2406700696
        0.8529998455        1.3793128426
        0.8708225263        1.5164741959
        0.8886452070        1.6522180989
        0.9064678878        1.7925806249
        0.9242905686        1.9511378464
        0.9421132493        2.1503340231
        0.9599359301        2.4179015876
        0.9777586109        2.7727492206
        0.9955812917        3.2027062797
        1.0134039724        3.6494312084
        1.0312266532        4.0186042539
        1.0490493340        4.2174774500
        1.0668720148        4.2000667303
        1.0846946955        3.9913032445
        1.1025173763        3.6721393126
        1.1203400571        3.3349749030
        1.1381627378        3.0422523468
        1.1559854186        2.8144175836
        1.1738080994        2.6439515279
        1.1916307802        2.5146892159
        1.2094534609        2.4131569088
        1.2272761417        2.3313245357
        1.2450988225        2.2645359685
        1.2629215033        2.2092106363
        1.2807441840        2.1626790404
        1.2985668648        2.1233298634
        1.3163895456        2.0902221372
        1.3342122263        2.0631039916
        1.3520349071        2.0417089533
        1.3698575879        2.0245174181
        1.3876802687        2.0097233959
        1.4055029494        1.9976939684
        1.4233256302        1.9908310262
        1.4411483110        1.9898485152
        1.4589709917        1.9915951978
        1.4767936725        1.9930913122
        1.4946163533        1.9966402887
        1.5124390341        2.0072967167
        1.5302617148        2.0252411648
        1.5480843956        2.0439298024
        1.5659070764        2.0562223114
        1.5837297572        2.0585392580
        1.6015524379        2.0468480818
        1.6193751187        2.0120912027
        1.6371977995        1.9437701484
        1.6550204802        1.8371319222
        1.6728431610        1.6943018949
        1.6906658418        1.5209523804
        1.7084885226        1.3281110840
        1.7263112033        1.1383562894
        1.7441338841        0.9829016948
        1.7619565649        0.8852322418
        1.7797792457        0.8472193263
        1.7976019264        0.8526398230
        1.8154246072        0.8821531702
        1.8332472880        0.9243149350
        1.8510699687        0.9767742003
        1.8688926495        1.0410112224
        1.8867153303        1.1165047983
        1.9045380111        1.2014483833
        1.9223606918        1.2999706784
        1.9401833726        1.4229607253
        1.9580060534        1.5746471983
        1.9758287341        1.7391612924
        1.9936514149        1.8864821523
        2.0114740957        1.9932931983
        2.0292967765        2.0552282794
        2.0471194572        2.0818112256
        2.0649421380        2.0881036034
        2.0827648188        2.0908591925
        2.1005874996        2.1026415046
        2.1184101803        2.1266394987
        2.1362328611        2.1614311741
        2.1540555419        2.2082238974
        2.1718782226        2.2689817777
        2.1897009034        2.3412579905
        2.2075235842        2.4191939399
        2.2253462650        2.4982356422
        2.2431689457        2.5773407336
        2.2609916265        2.6593171090
        2.2788143073        2.7534327567
        2.2966369880        2.8756120958
        2.3144596688        3.0360302821
        2.3322823496        3.2194628145
        2.3501050304        3.3799353724
        2.3679277111        3.4616313233
        2.3857503919        3.4329095025
        2.4035730727        3.3061325213
        2.4213957535        3.1275563983
        2.4392184342        2.9482858425
        2.4570411150        2.8000636936
        2.4748637958        2.6896060653
        2.4926864765        2.6089814802
        2.5105091573        2.5490566184
        2.5283318381        2.5053147903
        2.5461545189        2.4772096626
        2.5639771996        2.4654872600
        2.5817998804        2.4684254944
        2.5996225612        2.4808106035
        2.6174452420        2.4989977696
        2.6352679227        2.5265048449
        2.6530906035        2.5717653918
        2.6709132843        2.6396299534
        2.6887359650        2.7284310386
        2.7065586458        2.8380865823
        2.7243813266        2.9785414277
        2.7422040074        3.1650416488
        2.7600266881        3.4000306278
        2.7778493689        3.6549271054
        2.7956720497        3.8701005948
        2.8134947304        3.9835065394
        2.8313174112        3.9720142155
        2.8491400920        3.8665641695
        2.8669627728        3.7218857692
        2.8847854535        3.5682319428
        2.9026081343        3.3893817437
        2.9204308151        3.1458521428
        2.9382534959        2.8237311650
        2.9560761766        2.4640420130
        2.9738988574        2.1427851031
        2.9917215382        1.9229150789
        3.0095442189        1.8246532287
        3.0273668997        1.8296509739
        3.0451895805        1.8991272855
        3.0630122613        1.9885513746
        3.0808349420        2.0579507834
        3.0986576228        2.0793465368
        3.1164803036        2.0395226776
        3.1343029844        1.9382666235
        3.1521256651        1.7851604943
        3.1699483459        1.5976941196
        3.1877710267        1.3999203381
        3.2055937074        1.2176867643
        3.2234163882        1.0697759629
        3.2412390690        0.9616190980
        3.2590617498        0.8876315771
        3.2768844305        0.8391032816
        3.2947071113        0.8106184899
        3.3125297921        0.8022677401
        3.3303524728        0.8184134323
        3.3481751536        0.8631295858
        3.3659978344        0.9317888880
        3.3838205152        1.0025890074
        3.4016431959        1.0385739582
        3.4194658767        1.0068309933
        3.4372885575        0.9023571870
        3.4551112383        0.7524060768
        3.4729339190        0.5955568721
        3.4907565998        0.4572638492
        3.5085792806        0.3430692825
        3.5264019613        0.2479099532
        3.5442246421        0.1673741188
        3.5620473229        0.1019208268
        3.5798700037        0.0541989848
        3.5976926844        0.0245124195
        3.6155153652        0.0092376150
        3.6333380460        0.0028564386
        3.6511607268        0.0007164851
        3.6689834075        0.0001445472
        3.6868060883        0.0000233060
        3.7046287691        0.0000029888
        3.7224514498        0.0000003037
        3.7402741306        0.0000000244
        3.7580968114        0.0000000015
        3.7759194922        0.0000000001
        3.7937421729        0.0000000000
        3.8115648537        0.0000000000
        3.8293875345        0.0000000000
        3.8472102152        0.0000000000
        3.8650328960        0.0000000000
        3.8828555768        0.0000000000
        3.9006782576        0.0000000000
        3.9185009383        0.0000000000
