nqpoint: 404    
npath: 4      
natom: 2      
phonon:
- q-position: [    0.0000000,    0.0000000,    0.0000000 ]
  distance:    0.0000000
  band:
  - # 1
    frequency:    0.0039213547
  - # 2
    frequency:    0.0039213547
  - # 3
    frequency:    0.0039234357
  - # 4
    frequency:    1.4512328439
  - # 5
    frequency:    1.4512328439
  - # 6
    frequency:    3.6416068580

- q-position: [    0.0050000,    0.0025000,    0.0075000 ]
  distance:    0.0018294
  band:
  - # 1
    frequency:    0.0401496484
  - # 2
    frequency:    0.0423684000
  - # 3
    frequency:    0.0638725166
  - # 4
    frequency:    1.4539415352
  - # 5
    frequency:    1.4543036551
  - # 6
    frequency:    3.6428787833

- q-position: [    0.0100000,    0.0050000,    0.0150000 ]
  distance:    0.0036588
  band:
  - # 1
    frequency:    0.0798168687
  - # 2
    frequency:    0.0842149713
  - # 3
    frequency:    0.1274971976
  - # 4
    frequency:    1.4620227135
  - # 5
    frequency:    1.4634682939
  - # 6
    frequency:    3.6466819944

- q-position: [    0.0150000,    0.0075000,    0.0225000 ]
  distance:    0.0054882
  band:
  - # 1
    frequency:    0.1191668919
  - # 2
    frequency:    0.1256373744
  - # 3
    frequency:    0.1910290156
  - # 4
    frequency:    1.4753435814
  - # 5
    frequency:    1.4785851136
  - # 6
    frequency:    3.6529790016

- q-position: [    0.0200000,    0.0100000,    0.0300000 ]
  distance:    0.0073176
  band:
  - # 1
    frequency:    0.1579826624
  - # 2
    frequency:    0.1663821850
  - # 3
    frequency:    0.2543737172
  - # 4
    frequency:    1.4936889697
  - # 5
    frequency:    1.4994238058
  - # 6
    frequency:    3.6617080003

- q-position: [    0.0250000,    0.0125000,    0.0375000 ]
  distance:    0.0091470
  band:
  - # 1
    frequency:    0.1961078278
  - # 2
    frequency:    0.2062682603
  - # 3
    frequency:    0.3174637271
  - # 4
    frequency:    1.5167701005
  - # 5
    frequency:    1.5256739175
  - # 6
    frequency:    3.6727838647

- q-position: [    0.0300000,    0.0150000,    0.0450000 ]
  distance:    0.0109764
  band:
  - # 1
    frequency:    0.2334184017
  - # 2
    frequency:    0.2451616924
  - # 3
    frequency:    0.3802386794
  - # 4
    frequency:    1.5442359259
  - # 5
    frequency:    1.5569563636
  - # 6
    frequency:    3.6860994958

- q-position: [    0.0350000,    0.0175000,    0.0525000 ]
  distance:    0.0128058
  band:
  - # 1
    frequency:    0.2698191109
  - # 2
    frequency:    0.2829722529
  - # 3
    frequency:    0.4426429446
  - # 4
    frequency:    1.5756861935
  - # 5
    frequency:    1.5928372967
  - # 6
    frequency:    3.7015274808

- q-position: [    0.0400000,    0.0200000,    0.0600000 ]
  distance:    0.0146352
  band:
  - # 1
    frequency:    0.3052409657
  - # 2
    frequency:    0.3196493574
  - # 3
    frequency:    0.5046251431
  - # 4
    frequency:    1.6106852825
  - # 5
    frequency:    1.6328433979
  - # 6
    frequency:    3.7189220164

- q-position: [    0.0450000,    0.0225000,    0.0675000 ]
  distance:    0.0164647
  band:
  - # 1
    frequency:    0.3396379757
  - # 2
    frequency:    0.3551760753
  - # 3
    frequency:    0.5661379984
  - # 4
    frequency:    1.6487758676
  - # 5
    frequency:    1.6764774698
  - # 6
    frequency:    3.7381210413

- q-position: [    0.0500000,    0.0250000,    0.0750000 ]
  distance:    0.0182941
  band:
  - # 1
    frequency:    0.3729831645
  - # 2
    frequency:    0.3895619167
  - # 3
    frequency:    0.6271382226
  - # 4
    frequency:    1.6894915975
  - # 5
    frequency:    1.7232332249
  - # 6
    frequency:    3.7589485211

- q-position: [    0.0550000,    0.0275000,    0.0825000 ]
  distance:    0.0201235
  band:
  - # 1
    frequency:    0.4052643847
  - # 2
    frequency:    0.4228354103
  - # 3
    frequency:    0.6875863685
  - # 4
    frequency:    1.7323681872
  - # 5
    frequency:    1.7726083631
  - # 6
    frequency:    3.7812168302

- q-position: [    0.0600000,    0.0300000,    0.0900000 ]
  distance:    0.0219529
  band:
  - # 1
    frequency:    0.4364803937
  - # 2
    frequency:    0.4550373111
  - # 3
    frequency:    0.7474466350
  - # 4
    frequency:    1.7769525790
  - # 5
    frequency:    1.8241153604
  - # 6
    frequency:    3.8047291754

- q-position: [    0.0650000,    0.0325000,    0.0975000 ]
  distance:    0.0237823
  band:
  - # 1
    frequency:    0.4666375054
  - # 2
    frequency:    0.4862149588
  - # 3
    frequency:    0.8066866270
  - # 4
    frequency:    1.8228100710
  - # 5
    frequency:    1.8772897389
  - # 6
    frequency:    3.8292820119

- q-position: [    0.0700000,    0.0350000,    0.1050000 ]
  distance:    0.0256117
  band:
  - # 1
    frequency:    0.4957469668
  - # 2
    frequency:    0.5164180038
  - # 3
    frequency:    0.8652770722
  - # 4
    frequency:    1.8695295041
  - # 5
    frequency:    1.9316958940
  - # 6
    frequency:    3.8546674075

- q-position: [    0.0750000,    0.0375000,    0.1125000 ]
  distance:    0.0274411
  band:
  - # 1
    frequency:    0.5238230781
  - # 2
    frequency:    0.5456954728
  - # 3
    frequency:    0.9231914983
  - # 4
    frequency:    1.9167267331
  - # 5
    frequency:    1.9869307606
  - # 6
    frequency:    3.8806753169

- q-position: [    0.0800000,    0.0400000,    0.1200000 ]
  distance:    0.0292705
  band:
  - # 1
    frequency:    0.5508819872
  - # 2
    frequency:    0.5740940034
  - # 3
    frequency:    0.9804058749
  - # 4
    frequency:    1.9640466716
  - # 5
    frequency:    2.0426257064
  - # 6
    frequency:    3.9070957362

- q-position: [    0.0850000,    0.0425000,    0.1275000 ]
  distance:    0.0310999
  band:
  - # 1
    frequency:    0.5769410380
  - # 2
    frequency:    0.6016570065
  - # 3
    frequency:    1.0368982233
  - # 4
    frequency:    2.0111642189
  - # 5
    frequency:    2.0984470668
  - # 6
    frequency:    3.9337207130

- q-position: [    0.0900000,    0.0450000,    0.1350000 ]
  distance:    0.0329293
  band:
  - # 1
    frequency:    0.6020185434
  - # 2
    frequency:    0.6284245111
  - # 3
    frequency:    1.0926482010
  - # 4
    frequency:    2.0577843527
  - # 5
    frequency:    2.1540957019
  - # 6
    frequency:    3.9603461976

- q-position: [    0.0950000,    0.0475000,    0.1425000 ]
  distance:    0.0347587
  band:
  - # 1
    frequency:    0.6261338543
  - # 2
    frequency:    0.6544334659
  - # 3
    frequency:    1.1476366665
  - # 4
    frequency:    2.1036416352
  - # 5
    frequency:    2.2093058983
  - # 6
    frequency:    3.9867737223

- q-position: [    0.1000000,    0.0500000,    0.1500000 ]
  distance:    0.0365881
  band:
  - # 1
    frequency:    0.6493076174
  - # 2
    frequency:    0.6797183169
  - # 3
    frequency:    1.2018452310
  - # 4
    frequency:    2.1484993313
  - # 5
    frequency:    2.2638438662
  - # 6
    frequency:    4.0128119060

- q-position: [    0.1050000,    0.0525000,    0.1575000 ]
  distance:    0.0384175
  band:
  - # 1
    frequency:    0.6715621349
  - # 2
    frequency:    0.7043117203
  - # 3
    frequency:    1.2552558052
  - # 4
    frequency:    2.1921482912
  - # 5
    frequency:    2.3175060191
  - # 6
    frequency:    4.0382777836

- q-position: [    0.1100000,    0.0550000,    0.1650000 ]
  distance:    0.0402469
  band:
  - # 1
    frequency:    0.6929217581
  - # 2
    frequency:    0.7282452881
  - # 3
    frequency:    1.3078501473
  - # 4
    frequency:    2.2344057071
  - # 5
    frequency:    2.3701171625
  - # 6
    frequency:    4.0629979634

- q-position: [    0.1150000,    0.0575000,    0.1725000 ]
  distance:    0.0420763
  band:
  - # 1
    frequency:    0.7134132686
  - # 2
    frequency:    0.7515502969
  - # 3
    frequency:    1.3596094216
  - # 4
    frequency:    2.2751138230
  - # 5
    frequency:    2.4215286759
  - # 6
    frequency:    4.0868096184

- q-position: [    0.1200000,    0.0600000,    0.1800000 ]
  distance:    0.0439057
  band:
  - # 1
    frequency:    0.7330662123
  - # 2
    frequency:    0.7742583128
  - # 3
    frequency:    1.4105137732
  - # 4
    frequency:    2.3141386448
  - # 5
    frequency:    2.4716167374
  - # 6
    frequency:    4.1095613225

- q-position: [    0.1250000,    0.0625000,    0.1875000 ]
  distance:    0.0457352
  band:
  - # 1
    frequency:    0.7519131629
  - # 2
    frequency:    0.7964017029
  - # 3
    frequency:    1.4605419290
  - # 4
    frequency:    2.3513686832
  - # 5
    frequency:    2.5202806143
  - # 6
    frequency:    4.1311137388

- q-position: [    0.1300000,    0.0650000,    0.1950000 ]
  distance:    0.0475646
  band:
  - # 1
    frequency:    0.7699899023
  - # 2
    frequency:    0.8180140163
  - # 3
    frequency:    1.5096708291
  - # 4
    frequency:    2.3867137424
  - # 5
    frequency:    2.5674410274
  - # 6
    frequency:    4.1513401731

- q-position: [    0.1350000,    0.0675000,    0.2025000 ]
  distance:    0.0493940
  band:
  - # 1
    frequency:    0.7873355070
  - # 2
    frequency:    0.8391302271
  - # 3
    frequency:    1.5578752997
  - # 4
    frequency:    2.4201037620
  - # 5
    frequency:    2.6130385875
  - # 6
    frequency:    4.1701270017

- q-position: [    0.1400000,    0.0700000,    0.2100000 ]
  distance:    0.0512234
  band:
  - # 1
    frequency:    0.8039923374
  - # 2
    frequency:    0.8597868356
  - # 3
    frequency:    1.6051277714
  - # 4
    frequency:    2.4514877091
  - # 5
    frequency:    2.6570322908
  - # 6
    frequency:    4.1873739859

- q-position: [    0.1450000,    0.0725000,    0.2175000 ]
  distance:    0.0530528
  band:
  - # 1
    frequency:    0.8200059264
  - # 2
    frequency:    0.8800218295
  - # 3
    frequency:    1.6513980531
  - # 4
    frequency:    2.4808325163
  - # 5
    frequency:    2.6993980625
  - # 6
    frequency:    4.2029944834

- q-position: [    0.1500000,    0.0750000,    0.2250000 ]
  distance:    0.0548822
  band:
  - # 1
    frequency:    0.8354247696
  - # 2
    frequency:    0.8998745109
  - # 3
    frequency:    1.6966531656
  - # 4
    frequency:    2.5081220569
  - # 5
    frequency:    2.7401273316
  - # 6
    frequency:    4.2169155645

- q-position: [    0.1550000,    0.0775000,    0.2325000 ]
  distance:    0.0567116
  band:
  - # 1
    frequency:    0.8503000163
  - # 2
    frequency:    0.9193851958
  - # 3
    frequency:    1.7408572440
  - # 4
    frequency:    2.5333561495
  - # 5
    frequency:    2.7792256222
  - # 6
    frequency:    4.2290780440

- q-position: [    0.1600000,    0.0800000,    0.2400000 ]
  distance:    0.0585410
  band:
  - # 1
    frequency:    0.8646850673
  - # 2
    frequency:    0.9385947952
  - # 3
    frequency:    1.7839715126
  - # 4
    frequency:    2.5565495816
  - # 5
    frequency:    2.8167111475
  - # 6
    frequency:    4.2394364352

- q-position: [    0.1650000,    0.0825000,    0.2475000 ]
  distance:    0.0603704
  band:
  - # 1
    frequency:    0.8786350834
  - # 2
    frequency:    0.9575442925
  - # 3
    frequency:    1.8259543396
  - # 4
    frequency:    2.5777311434
  - # 5
    frequency:    2.8526133944
  - # 6
    frequency:    4.2479588321

- q-position: [    0.1700000,    0.0850000,    0.2550000 ]
  distance:    0.0621998
  band:
  - # 1
    frequency:    0.8922064102
  - # 2
    frequency:    0.9762741302
  - # 3
    frequency:    1.8667613742
  - # 4
    frequency:    2.5969426645
  - # 5
    frequency:    2.8869716898
  - # 6
    frequency:    4.2546267258

- q-position: [    0.1750000,    0.0875000,    0.2625000 ]
  distance:    0.0640292
  band:
  - # 1
    frequency:    0.9054559315
  - # 2
    frequency:    0.9948235235
  - # 3
    frequency:    1.9063457678
  - # 4
    frequency:    2.6142380453
  - # 5
    frequency:    2.9198337417
  - # 6
    frequency:    4.2594347583

- q-position: [    0.1800000,    0.0900000,    0.2700000 ]
  distance:    0.0658586
  band:
  - # 1
    frequency:    0.9184403580
  - # 2
    frequency:    1.0132297206
  - # 3
    frequency:    1.9446584827
  - # 4
    frequency:    2.6296822771
  - # 5
    frequency:    2.9512541549
  - # 6
    frequency:    4.2623904168

- q-position: [    0.1850000,    0.0925000,    0.2775000 ]
  distance:    0.0676880
  band:
  - # 1
    frequency:    0.9312154675
  - # 2
    frequency:    1.0315272315
  - # 3
    frequency:    1.9816486821
  - # 4
    frequency:    2.6433504454
  - # 5
    frequency:    2.9812929230
  - # 6
    frequency:    4.2635136689

- q-position: [    0.1900000,    0.0950000,    0.2850000 ]
  distance:    0.0695174
  band:
  - # 1
    frequency:    0.9438353107
  - # 2
    frequency:    1.0497470470
  - # 3
    frequency:    2.0172641996
  - # 4
    frequency:    2.6553267131
  - # 5
    frequency:    3.0100139044
  - # 6
    frequency:    4.2628365395

- q-position: [    0.1950000,    0.0975000,    0.2925000 ]
  distance:    0.0713468
  band:
  - # 1
    frequency:    0.9563514000
  - # 2
    frequency:    1.0679158736
  - # 3
    frequency:    2.0514520784
  - # 4
    frequency:    2.6657032805
  - # 5
    frequency:    3.0374832961
  - # 6
    frequency:    4.2604026271

- q-position: [    0.2000000,    0.1000000,    0.3000000 ]
  distance:    0.0731762
  band:
  - # 1
    frequency:    0.9688119010
  - # 2
    frequency:    1.0860554073
  - # 3
    frequency:    2.0841591693
  - # 4
    frequency:    2.6745793208
  - # 5
    frequency:    3.0637681227
  - # 6
    frequency:    4.2562665587

- q-position: [    0.2050000,    0.1025000,    0.3075000 ]
  distance:    0.0750057
  band:
  - # 1
    frequency:    0.9812608471
  - # 2
    frequency:    1.1041816707
  - # 3
    frequency:    2.1153327730
  - # 4
    frequency:    2.6820598907
  - # 5
    frequency:    3.0889347640
  - # 6
    frequency:    4.2504933778

- q-position: [    0.2100000,    0.1050000,    0.3150000 ]
  distance:    0.0768351
  band:
  - # 1
    frequency:    0.9937373986
  - # 2
    frequency:    1.1223044353
  - # 3
    frequency:    2.1449213109
  - # 4
    frequency:    2.6882548185
  - # 5
    frequency:    3.1130475477
  - # 6
    frequency:    4.2431578632

- q-position: [    0.2150000,    0.1075000,    0.3225000 ]
  distance:    0.0786645
  band:
  - # 1
    frequency:    1.0062751677
  - # 2
    frequency:    1.1404267494
  - # 3
    frequency:    2.1728750063
  - # 4
    frequency:    2.6932775706
  - # 5
    frequency:    3.1361674355
  - # 6
    frequency:    4.2343437733

- q-position: [    0.2200000,    0.1100000,    0.3300000 ]
  distance:    0.0804939
  band:
  - # 1
    frequency:    1.0189016303
  - # 2
    frequency:    1.1585445877
  - # 3
    frequency:    2.1991465609
  - # 4
    frequency:    2.6972441026
  - # 5
    frequency:    3.1583508309
  - # 6
    frequency:    4.2241430143

- q-position: [    0.2250000,    0.1125000,    0.3375000 ]
  distance:    0.0823233
  band:
  - # 1
    frequency:    1.0316376430
  - # 2
    frequency:    1.1766466360
  - # 3
    frequency:    2.2236918117
  - # 4
    frequency:    2.7002716985
  - # 5
    frequency:    3.1796485330
  - # 6
    frequency:    4.2126547281

- q-position: [    0.2300000,    0.1150000,    0.3450000 ]
  distance:    0.0841527
  band:
  - # 1
    frequency:    1.0444970822
  - # 2
    frequency:    1.1947142192
  - # 3
    frequency:    2.2464703608
  - # 4
    frequency:    2.7024778067
  - # 5
    frequency:    3.2001048541
  - # 6
    frequency:    4.1999843021

- q-position: [    0.2350000,    0.1175000,    0.3525000 ]
  distance:    0.0859821
  band:
  - # 1
    frequency:    1.0574866179
  - # 2
    frequency:    1.2127213760
  - # 3
    frequency:    2.2674461757
  - # 4
    frequency:    2.7039788796
  - # 5
    frequency:    3.2197569082
  - # 6
    frequency:    4.1862423060

- q-position: [    0.2400000,    0.1200000,    0.3600000 ]
  distance:    0.0878115
  band:
  - # 1
    frequency:    1.0706056316
  - # 2
    frequency:    1.2306350800
  - # 3
    frequency:    2.2865881662
  - # 4
    frequency:    2.7048892281
  - # 5
    frequency:    3.2386340642
  - # 6
    frequency:    4.1715433673

- q-position: [    0.2450000,    0.1225000,    0.3675000 ]
  distance:    0.0896409
  band:
  - # 1
    frequency:    1.0838462821
  - # 2
    frequency:    1.2484156005
  - # 3
    frequency:    2.3038707508
  - # 4
    frequency:    2.7053199010
  - # 5
    frequency:    3.2567575417
  - # 6
    frequency:    4.1560050044

- q-position: [    0.2500000,    0.1250000,    0.3750000 ]
  distance:    0.0914703
  band:
  - # 1
    frequency:    1.0971937206
  - # 2
    frequency:    1.2660169936
  - # 3
    frequency:    2.3192744324
  - # 4
    frequency:    2.7053776020
  - # 5
    frequency:    3.2741401121
  - # 6
    frequency:    4.1397464482

- q-position: [    0.2550000,    0.1275000,    0.3825000 ]
  distance:    0.0932997
  band:
  - # 1
    frequency:    1.1106264481
  - # 2
    frequency:    1.2833877105
  - # 3
    frequency:    2.3327864053
  - # 4
    frequency:    2.7051636577
  - # 5
    frequency:    3.2907858500
  - # 6
    frequency:    4.1228874942

- q-position: [    0.2600000,    0.1300000,    0.3900000 ]
  distance:    0.0951291
  band:
  - # 1
    frequency:    1.1241168074
  - # 2
    frequency:    1.3004713065
  - # 3
    frequency:    2.3444012126
  - # 4
    frequency:    2.7047730506
  - # 5
    frequency:    3.3066898696
  - # 6
    frequency:    4.1055474409

- q-position: [    0.2650000,    0.1325000,    0.3975000 ]
  distance:    0.0969585
  band:
  - # 1
    frequency:    1.1376315955
  - # 2
    frequency:    1.3172072331
  - # 3
    frequency:    2.3541214684
  - # 4
    frequency:    2.7042935319
  - # 5
    frequency:    3.3218379728
  - # 6
    frequency:    4.0878441824

- q-position: [    0.2700000,    0.1350000,    0.4050000 ]
  distance:    0.0987879
  band:
  - # 1
    frequency:    1.1511327787
  - # 2
    frequency:    1.3335316954
  - # 3
    frequency:    2.3619586440
  - # 4
    frequency:    2.7038048293
  - # 5
    frequency:    3.3362061351
  - # 6
    frequency:    4.0698935354

- q-position: [    0.2750000,    0.1375000,    0.4125000 ]
  distance:    0.1006173
  band:
  - # 1
    frequency:    1.1645782913
  - # 2
    frequency:    1.3493785570
  - # 3
    frequency:    2.3679339013
  - # 4
    frequency:    2.7033779642
  - # 5
    frequency:    3.3497597644
  - # 6
    frequency:    4.0518088840

- q-position: [    0.2800000,    0.1400000,    0.4200000 ]
  distance:    0.1024467
  band:
  - # 1
    frequency:    1.1779228955
  - # 2
    frequency:    1.3646802761
  - # 3
    frequency:    2.3720789365
  - # 4
    frequency:    2.7030746919
  - # 5
    frequency:    3.3624526892
  - # 6
    frequency:    4.0337012231

- q-position: [    0.2850000,    0.1425000,    0.4275000 ]
  distance:    0.1042762
  band:
  - # 1
    frequency:    1.1911190784
  - # 2
    frequency:    1.3793688603
  - # 3
    frequency:    2.3744367794
  - # 4
    frequency:    2.7029470787
  - # 5
    frequency:    3.3742258662
  - # 6
    frequency:    4.0156796615

- q-position: [    0.2900000,    0.1450000,    0.4350000 ]
  distance:    0.1061056
  band:
  - # 1
    frequency:    1.2041179648
  - # 2
    frequency:    1.3933768278
  - # 3
    frequency:    2.3750624763
  - # 4
    frequency:    2.7030372257
  - # 5
    frequency:    3.3850058495
  - # 6
    frequency:    3.9978524042

- q-position: [    0.2950000,    0.1475000,    0.4425000 ]
  distance:    0.1079350
  band:
  - # 1
    frequency:    1.2168702202
  - # 2
    frequency:    1.4066381714
  - # 3
    frequency:    2.3740235756
  - # 4
    frequency:    2.7033771477
  - # 5
    frequency:    3.3947031365
  - # 6
    frequency:    3.9803281678

- q-position: [    0.3000000,    0.1500000,    0.4500000 ]
  distance:    0.1097644
  band:
  - # 1
    frequency:    1.2293269251
  - # 2
    frequency:    1.4190893188
  - # 3
    frequency:    2.3714003368
  - # 4
    frequency:    2.7039888142
  - # 5
    frequency:    3.4032106069
  - # 6
    frequency:    3.9632178741

- q-position: [    0.3050000,    0.1525000,    0.4575000 ]
  distance:    0.1115938
  band:
  - # 1
    frequency:    1.2414404009
  - # 2
    frequency:    1.4306700920
  - # 3
    frequency:    2.3672855888
  - # 4
    frequency:    2.7048843510
  - # 5
    frequency:    3.4104024022
  - # 6
    frequency:    3.9466363297

- q-position: [    0.3100000,    0.1550000,    0.4650000 ]
  distance:    0.1134232
  band:
  - # 1
    frequency:    1.2531649709
  - # 2
    frequency:    1.4413246669
  - # 3
    frequency:    2.3617841863
  - # 4
    frequency:    2.7060664042
  - # 5
    frequency:    3.4161337447
  - # 6
    frequency:    3.9307034185

- q-position: [    0.3150000,    0.1575000,    0.4725000 ]
  distance:    0.1152526
  band:
  - # 1
    frequency:    1.2644576447
  - # 2
    frequency:    1.4510025367
  - # 3
    frequency:    2.3550120354
  - # 4
    frequency:    2.7075286568
  - # 5
    frequency:    3.4202423488
  - # 6
    frequency:    3.9155441627

- q-position: [    0.3200000,    0.1600000,    0.4800000 ]
  distance:    0.1170820
  band:
  - # 1
    frequency:    1.2752787165
  - # 2
    frequency:    1.4596594796
  - # 3
    frequency:    2.3470946901
  - # 4
    frequency:    2.7092564893
  - # 5
    frequency:    3.4225521683
  - # 6
    frequency:    3.9012868830

- q-position: [    0.3250000,    0.1625000,    0.4875000 ]
  distance:    0.1189114
  band:
  - # 1
    frequency:    1.2855922736
  - # 2
    frequency:    1.4672585310
  - # 3
    frequency:    2.3381655546
  - # 4
    frequency:    2.7112277687
  - # 5
    frequency:    3.4228801448
  - # 6
    frequency:    3.8880587411

- q-position: [    0.3300000,    0.1650000,    0.4950000 ]
  distance:    0.1207408
  band:
  - # 1
    frequency:    1.2953666116
  - # 2
    frequency:    1.4737709489
  - # 3
    frequency:    2.3283637520
  - # 4
    frequency:    2.7134137481
  - # 5
    frequency:    3.4210462550
  - # 6
    frequency:    3.8759782966

- q-position: [    0.3350000,    0.1675000,    0.5025000 ]
  distance:    0.1225702
  band:
  - # 1
    frequency:    1.3045745612
  - # 2
    frequency:    1.4791771573
  - # 3
    frequency:    2.3178317479
  - # 4
    frequency:    2.7157800547
  - # 5
    frequency:    3.4168864065
  - # 6
    frequency:    3.8651454356

- q-position: [    0.3400000,    0.1700000,    0.5100000 ]
  distance:    0.1243996
  band:
  - # 1
    frequency:    1.3131937285
  - # 2
    frequency:    1.4834676375
  - # 3
    frequency:    2.3067128341
  - # 4
    frequency:    2.7182877437
  - # 5
    frequency:    3.4102667099
  - # 6
    frequency:    3.8556300520

- q-position: [    0.3450000,    0.1725000,    0.5175000 ]
  distance:    0.1262290
  band:
  - # 1
    frequency:    1.3212066575
  - # 2
    frequency:    1.4866437263
  - # 3
    frequency:    2.2951485899
  - # 4
    frequency:    2.7208943918
  - # 5
    frequency:    3.4010967062
  - # 6
    frequency:    3.8474618056

- q-position: [    0.3500000,    0.1750000,    0.5250000 ]
  distance:    0.1280584
  band:
  - # 1
    frequency:    1.3286009224
  - # 2
    frequency:    1.4887182715
  - # 3
    frequency:    2.2832764447
  - # 4
    frequency:    2.7235552062
  - # 5
    frequency:    3.3893388129
  - # 6
    frequency:    3.8406236040

- q-position: [    0.3550000,    0.1775000,    0.5325000 ]
  distance:    0.1298878
  band:
  - # 1
    frequency:    1.3353691584
  - # 2
    frequency:    1.4897160823
  - # 3
    frequency:    2.2712274579
  - # 4
    frequency:    2.7262241237
  - # 5
    frequency:    3.3750119482
  - # 6
    frequency:    3.8350507776

- q-position: [    0.3600000,    0.1800000,    0.5400000 ]
  distance:    0.1317172
  band:
  - # 1
    frequency:    1.3415090399
  - # 2
    frequency:    1.4896741144
  - # 3
    frequency:    2.2591244261
  - # 4
    frequency:    2.7288548765
  - # 5
    frequency:    3.3581888617
  - # 6
    frequency:    3.8306363534

- q-position: [    0.3650000,    0.1825000,    0.5475000 ]
  distance:    0.1335467
  band:
  - # 1
    frequency:    1.3470232137
  - # 2
    frequency:    1.4886413306
  - # 3
    frequency:    2.2470804031
  - # 4
    frequency:    2.7314020034
  - # 5
    frequency:    3.3389884331
  - # 6
    frequency:    3.8272411243

- q-position: [    0.3700000,    0.1850000,    0.5550000 ]
  distance:    0.1353761
  band:
  - # 1
    frequency:    1.3519191946
  - # 2
    frequency:    1.4866781940
  - # 3
    frequency:    2.2351976955
  - # 4
    frequency:    2.7338217886
  - # 5
    frequency:    3.3175653023
  - # 6
    frequency:    3.8247061161

- q-position: [    0.3750000,    0.1875000,    0.5625000 ]
  distance:    0.1372055
  band:
  - # 1
    frequency:    1.3562092284
  - # 2
    frequency:    1.4838557680
  - # 3
    frequency:    2.2235673583
  - # 4
    frequency:    2.7360731120
  - # 5
    frequency:    3.2940992912
  - # 6
    frequency:    3.8228649770

- q-position: [    0.3800000,    0.1900000,    0.5700000 ]
  distance:    0.1390349
  band:
  - # 1
    frequency:    1.3599101257
  - # 2
    frequency:    1.4802544302
  - # 3
    frequency:    2.2122691830
  - # 4
    frequency:    2.7381181977
  - # 5
    frequency:    3.2687864011
  - # 6
    frequency:    3.8215544959

- q-position: [    0.3850000,    0.1925000,    0.5775000 ]
  distance:    0.1408643
  band:
  - # 1
    frequency:    1.3630430699
  - # 2
    frequency:    1.4759622331
  - # 3
    frequency:    2.2013721259
  - # 4
    frequency:    2.7399232548
  - # 5
    frequency:    3.2418322228
  - # 6
    frequency:    3.8206224136

- q-position: [    0.3900000,    0.1950000,    0.5850000 ]
  distance:    0.1426937
  band:
  - # 1
    frequency:    1.3656333975
  - # 2
    frequency:    1.4710729770
  - # 3
    frequency:    2.1909350955
  - # 4
    frequency:    2.7414590006
  - # 5
    frequency:    3.2134478080
  - # 6
    frequency:    3.8199324852

- q-position: [    0.3950000,    0.1975000,    0.5925000 ]
  distance:    0.1445231
  band:
  - # 1
    frequency:    1.3677103529
  - # 2
    frequency:    1.4656840838
  - # 3
    frequency:    2.1810079866
  - # 4
    frequency:    2.7427010666
  - # 5
    frequency:    3.1838475865
  - # 6
    frequency:    3.8193672200

- q-position: [    0.4000000,    0.2000000,    0.6000000 ]
  distance:    0.1463525
  band:
  - # 1
    frequency:    1.3693068138
  - # 2
    frequency:    1.4598943756
  - # 3
    frequency:    2.1716328310
  - # 4
    frequency:    2.7436302852
  - # 5
    frequency:    3.1532487525
  - # 6
    frequency:    3.8188288860

- q-position: [    0.4050000,    0.2025000,    0.6075000 ]
  distance:    0.1481819
  band:
  - # 1
    frequency:    1.3704589858
  - # 2
    frequency:    1.4538018702
  - # 3
    frequency:    2.1628449314
  - # 4
    frequency:    2.7442328594
  - # 5
    frequency:    3.1218715754
  - # 6
    frequency:    3.8182393410

- q-position: [    0.4100000,    0.2050000,    0.6150000 ]
  distance:    0.1500113
  band:
  - # 1
    frequency:    1.3712060630
  - # 2
    frequency:    1.4475016994
  - # 3
    frequency:    2.1546738452
  - # 4
    frequency:    2.7445004203
  - # 5
    frequency:    3.0899401974
  - # 6
    frequency:    3.8175391372

- q-position: [    0.4150000,    0.2075000,    0.6225000 ]
  distance:    0.1518407
  band:
  - # 1
    frequency:    1.3715898534
  - # 2
    frequency:    1.4410842448
  - # 3
    frequency:    2.1471441042
  - # 4
    frequency:    2.7444299767
  - # 5
    frequency:    3.0576836132
  - # 6
    frequency:    3.8166862207

- q-position: [    0.4200000,    0.2100000,    0.6300000 ]
  distance:    0.1536701
  band:
  - # 1
    frequency:    1.3716543650
  - # 2
    frequency:    1.4346335670
  - # 3
    frequency:    2.1402755745
  - # 4
    frequency:    2.7440237646
  - # 5
    frequency:    3.0253366305
  - # 6
    frequency:    3.8156544320

- q-position: [    0.4250000,    0.2125000,    0.6375000 ]
  distance:    0.1554995
  band:
  - # 1
    frequency:    1.3714453536
  - # 2
    frequency:    1.4282261847
  - # 3
    frequency:    2.1340833920
  - # 4
    frequency:    2.7432890055
  - # 5
    frequency:    2.9931406916
  - # 6
    frequency:    3.8144319365

- q-position: [    0.4300000,    0.2150000,    0.6450000 ]
  distance:    0.1573289
  band:
  - # 1
    frequency:    1.3710098318
  - # 2
    frequency:    1.4219302333
  - # 3
    frequency:    2.1285774405
  - # 4
    frequency:    2.7422375805
  - # 5
    frequency:    2.9613444818
  - # 6
    frequency:    3.8130196529

- q-position: [    0.4350000,    0.2175000,    0.6525000 ]
  distance:    0.1591583
  band:
  - # 1
    frequency:    1.3703955398
  - # 2
    frequency:    1.4158050163
  - # 3
    frequency:    2.1237613815
  - # 4
    frequency:    2.7408856320
  - # 5
    frequency:    2.9302042738
  - # 6
    frequency:    3.8114297153

- q-position: [    0.4400000,    0.2200000,    0.6600000 ]
  distance:    0.1609877
  band:
  - # 1
    frequency:    1.3696503833
  - # 2
    frequency:    1.4099009381
  - # 3
    frequency:    2.1196312879
  - # 4
    frequency:    2.7392531014
  - # 5
    frequency:    2.8999839576
  - # 6
    frequency:    3.8096839817

- q-position: [    0.4450000,    0.2225000,    0.6675000 ]
  distance:    0.1628172
  band:
  - # 1
    frequency:    1.3688218429
  - # 2
    frequency:    1.4042597911
  - # 3
    frequency:    2.1161739937
  - # 4
    frequency:    2.7373632153
  - # 5
    frequency:    2.8709546836
  - # 6
    frequency:    3.8078125920

- q-position: [    0.4500000,    0.2250000,    0.6750000 ]
  distance:    0.1646466
  band:
  - # 1
    frequency:    1.3679563626
  - # 2
    frequency:    1.3989153550
  - # 3
    frequency:    2.1133653378
  - # 4
    frequency:    2.7352419290
  - # 5
    frequency:    2.8433940125
  - # 6
    frequency:    3.8058525737

- q-position: [    0.4550000,    0.2275000,    0.6825000 ]
  distance:    0.1664760
  band:
  - # 1
    frequency:    1.3670987267
  - # 2
    frequency:    1.3938942524
  - # 3