14.400
  27.01279   0.00000  -0.00000   0.00000  27.01279   0.00000  -0.00000   0.00000  27.01279
   4.71712   0.00000   0.00000   0.00000   4.71712   0.00000   0.00000   0.00000   4.71712
  -4.71399   0.00000   0.00000   0.00000  -4.71399   0.00000   0.00000   0.00000  -4.71399
