128  
2    

1    
  0.0000000000000000   0.0070710678118655   0.0070710678118655
   0.0000000000   -0.0216262900   -0.0216262900
   0.0000000000    0.0041299100    0.0041299100
  -0.0000000000    0.0007634100    0.0007634100
  -0.0000000000    0.0040854700    0.0040854700
   0.0037786100   -0.0003817400    0.0003343600
   0.0002491700    0.0001790000    0.0004437600
  -0.0002495200    0.0004424900    0.0001795400
  -0.0037621800    0.0003398300   -0.0003779500
   0.0004226100   -0.0000667000    0.0003407000
  -0.0000005600   -0.0000703000   -0.0000698000
  -0.0004226100    0.0003407000   -0.0000667000
   0.0000005600   -0.0000698000   -0.0000703000
   0.0037621800   -0.0003779500    0.0003398300
  -0.0037786100    0.0003343600   -0.0003817400
  -0.0002491700    0.0004437600    0.0001790000
   0.0002495200    0.0001795400    0.0004424900
   0.0037786100    0.0003343600   -0.0003817400
   0.0002491700    0.0004437600    0.0001790000
  -0.0002495200    0.0001795400    0.0004424900
  -0.0037621800   -0.0003779500    0.0003398300
   0.0003198400    0.0001090100    0.0001090100
  -0.0000005900    0.0001375800    0.0001375800
  -0.0003188800    0.0001097900    0.0001097900
  -0.0000126300    0.0002206300    0.0002206300
   0.0000688500   -0.0001406000    0.0001236500
  -0.0000707800    0.0001238700   -0.0001392600
  -0.0004207300    0.0002750000   -0.0000762700
   0.0004230100   -0.0000769800    0.0002733700
   0.0000000000   -0.0034318200   -0.0034347600
   0.0000000000    0.0045719600    0.0002240700
   0.0000000000    0.0006973300    0.0006947900
   0.0000000000    0.0002170700    0.0045796500
   0.0004226100    0.0003407000   -0.0000667000
  -0.0000005600   -0.0000698000   -0.0000703000
  -0.0004226100   -0.0000667000    0.0003407000
   0.0000005600   -0.0000703000   -0.0000698000
   0.0000688500    0.0001236500   -0.0001406000
  -0.0000707800   -0.0001392600    0.0001238700
  -0.0004207300   -0.0000762700    0.0002750000
   0.0004230100    0.0002733700   -0.0000769800
   0.0000000000   -0.0000817300   -0.0000817300
   0.0000000000   -0.0001454300   -0.0001454300
   0.0000000000    0.0009522600    0.0009522600
   0.0000000000   -0.0001500900   -0.0001500900
   0.0000707800    0.0001238700   -0.0001392600
   0.0004207300    0.0002750000   -0.0000762700
  -0.0004230100   -0.0000769800    0.0002733700
  -0.0000688500   -0.0001406000    0.0001236500
   0.0037621800    0.0003398300   -0.0003779500
  -0.0037786100   -0.0003817400    0.0003343600
  -0.0002491700    0.0001790000    0.0004437600
   0.0002495200    0.0004424900    0.0001795400
   0.0000000000   -0.0034347600   -0.0034318200
   0.0000000000    0.0002240700    0.0045719600
   0.0000000000    0.0006947900    0.0006973300
   0.0000000000    0.0045796500    0.0002170700
   0.0000707800   -0.0001392600    0.0001238700
   0.0004207300   -0.0000762700    0.0002750000
  -0.0004230100    0.0002733700   -0.0000769800
  -0.0000688500    0.0001236500   -0.0001406000
   0.0003188800    0.0001097900    0.0001097900
   0.0000126300    0.0002206300    0.0002206300
  -0.0003198400    0.0001090100    0.0001090100
   0.0000005900    0.0001375800    0.0001375800
  -0.0006339600   -0.0003554500   -0.0003554500
  -0.0000005100   -0.0002354900   -0.0002354900
   0.0006300900   -0.0003539000   -0.0003539000
  -0.0000089200    0.0011812000    0.0011812000
  -0.0001108700   -0.0000395000   -0.0001240800
   0.0001114700   -0.0001243900   -0.0000389200
   0.0008599800   -0.0001691700    0.0000548100
  -0.0008641100    0.0000546100   -0.0001675200
   0.0000011900    0.0002778400    0.0002771000
   0.0005883700   -0.0003790700    0.0000548500
  -0.0000003100   -0.0001751700   -0.0001749600
  -0.0005903400    0.0000550000   -0.0003810600
   0.0000000000    0.0052058900    0.0011786600
   0.0000000000   -0.0012451300   -0.0007580100
   0.0000000000   -0.0007586200   -0.0012394900
   0.0000000000    0.0011832600    0.0048606500
  -0.0001108700   -0.0001240800   -0.0000395000
   0.0001114700   -0.0000389200   -0.0001243900
   0.0008599800    0.0000548100   -0.0001691700
  -0.0008641100   -0.0001675200    0.0000546100
   0.0000010600   -0.0000127800   -0.0000127800
   0.0001050300   -0.0000708800   -0.0000708800
   0.0000036100   -0.0002386600   -0.0002386600
  -0.0001036300   -0.0000703500   -0.0000703500
   0.0000000000    0.0004793400    0.0004189500
   0.0000000000   -0.0019758300   -0.0002391400
   0.0000000000   -0.0002373800   -0.0019809100
   0.0000000000    0.0004229000    0.0004848900
  -0.0005883700   -0.0003790700    0.0000548500
   0.0000003100   -0.0001751700   -0.0001749600
   0.0005903400    0.0000550000   -0.0003810600
  -0.0000011900    0.0002778400    0.0002771000
   0.0000011900    0.0002771000    0.0002778400
   0.0005883700    0.0000548500   -0.0003790700
  -0.0000003100   -0.0001749600   -0.0001751700
  -0.0005903400   -0.0003810600    0.0000550000
   0.0000000000    0.0004189500    0.0004793400
   0.0000000000   -0.0002391400   -0.0019758300
   0.0000000000   -0.0019809100   -0.0002373800
   0.0000000000    0.0004848900    0.0004229000
  -0.0001050300   -0.0000708800   -0.0000708800
  -0.0000036100   -0.0002386600   -0.0002386600
   0.0001036300   -0.0000703500   -0.0000703500
  -0.0000010600   -0.0000127800   -0.0000127800
  -0.0008599800   -0.0001691700    0.0000548100
   0.0008641100    0.0000546100   -0.0001675200
   0.0001108700   -0.0000395000   -0.0001240800
  -0.0001114700   -0.0001243900   -0.0000389200
   0.0000000000    0.0011786600    0.0052058900
   0.0000000000   -0.0007580100   -0.0012451300
   0.0000000000   -0.0012394900   -0.0007586200
   0.0000000000    0.0048606500    0.0011832600
  -0.0005883700    0.0000548500   -0.0003790700
   0.0000003100   -0.0001749600   -0.0001751700
   0.0005903400   -0.0003810600    0.0000550000
  -0.0000011900    0.0002771000    0.0002778400
  -0.0008599800    0.0000548100   -0.0001691700
   0.0008641100   -0.0001675200    0.0000546100
   0.0001108700   -0.0001240800   -0.0000395000
  -0.0001114700   -0.0000389200   -0.0001243900
   0.0000089200    0.0011812000    0.0011812000
   0.0006339600   -0.0003554500   -0.0003554500
   0.0000005100   -0.0002354900   -0.0002354900
  -0.0006300900   -0.0003539000   -0.0003539000

65   
  0.0000000000000000   0.0070710678118655   0.0070710678118655
  -0.0006285900   -0.0003550500   -0.0003550500
  -0.0000039000    0.0011788300    0.0011788300
   0.0006335900   -0.0003537500   -0.0003537500
   0.0000011300   -0.0002345800   -0.0002345800
  -0.0000000000    0.0048696500    0.0011936900
  -0.0000000000    0.0011630500    0.0051967800
  -0.0000000000   -0.0010298800   -0.0009728200
  -0.0000000000   -0.0009658300   -0.0010288000
  -0.0000000000    0.0002755500    0.0002777000
  -0.0008620600    0.0000548500   -0.0003800100
  -0.0000013200   -0.0001734900   -0.0001748000
   0.0008606000   -0.0003808400    0.0000549000
  -0.0001106100   -0.0000407100   -0.0001236400
  -0.0005880800    0.0000551900   -0.0001709900
   0.0005897300   -0.0001651200    0.0000544100
   0.0001109200   -0.0001237700   -0.0000403100
  -0.0000000000    0.0011936900    0.0048696500
  -0.0000000000    0.0051967800    0.0011630500
  -0.0000000000   -0.0009728200   -0.0010298800
  -0.0000000000   -0.0010288000   -0.0009658300
   0.0000039000    0.0011788300    0.0011788300
  -0.0006335900   -0.0003537500   -0.0003537500
  -0.0000011300   -0.0002345800   -0.0002345800
   0.0006285900   -0.0003550500   -0.0003550500
  -0.0005897300    0.0000544100   -0.0001651200
  -0.0001109200   -0.0000403100   -0.0001237700
   0.0001106100   -0.0001236400   -0.0000407100
   0.0005880800   -0.0001709900    0.0000551900
  -0.0008606000    0.0000549000   -0.0003808400
   0.0000000000    0.0002777000    0.0002755500
   0.0008620600   -0.0003800100    0.0000548500
   0.0000013200   -0.0001748000   -0.0001734900
  -0.0000000000    0.0002777000    0.0002755500
  -0.0008620600   -0.0003800100    0.0000548500
  -0.0000013200   -0.0001748000   -0.0001734900
   0.0008606000    0.0000549000   -0.0003808400
  -0.0005897300   -0.0001651200    0.0000544100
  -0.0001109200   -0.0001237700   -0.0000403100
   0.0001106100   -0.0000407100   -0.0001236400
   0.0005880800    0.0000551900   -0.0001709900
  -0.0001034100   -0.0000695800   -0.0000695800
   0.0000005500   -0.0000128500   -0.0000128500
   0.0001049600   -0.0000702500   -0.0000702500
   0.0000060400   -0.0002385900   -0.0002385900
  -0.0000000000    0.0006926000    0.0002085900
  -0.0000000000    0.0002085400    0.0006938300
  -0.0000000000   -0.0019828300   -0.0002379600
  -0.0000000000   -0.0002391100   -0.0019736800
  -0.0001106100   -0.0001236400   -0.0000407100
  -0.0005880800   -0.0001709900    0.0000551900
   0.0005897300    0.0000544100   -0.0001651200
   0.0001109200   -0.0000403100   -0.0001237700
  -0.0008606000   -0.0003808400    0.0000549000
   0.0000000000    0.0002755500    0.0002777000
   0.0008620600    0.0000548500   -0.0003800100
   0.0000013200   -0.0001734900   -0.0001748000
  -0.0000000000    0.0002085900    0.0006926000
  -0.0000000000    0.0006938300    0.0002085400
  -0.0000000000   -0.0002379600   -0.0019828300
  -0.0000000000   -0.0019736800   -0.0002391100
  -0.0000005500   -0.0000128500   -0.0000128500
  -0.0001049600   -0.0000702500   -0.0000702500
  -0.0000060400   -0.0002385900   -0.0002385900
   0.0001034100   -0.0000695800   -0.0000695800
  -0.0000000000   -0.0251449500   -0.0251449500
  -0.0000000000    0.0015991100    0.0015991100
  -0.0000000000    0.0004604400    0.0004604400
  -0.0000000000    0.0015652200    0.0015652200
   0.0014369500   -0.0000510000    0.0001489700
   0.0001917400    0.0001384500    0.0002959900
  -0.0001907800    0.0002952000    0.0001396300
  -0.0014296100    0.0001480700   -0.0000494600
   0.0002895700    0.0000483300    0.0001710200
   0.0000000300   -0.0000534000   -0.0000513700
  -0.0002895700    0.0001710200    0.0000483300
  -0.0000000300   -0.0000513700   -0.0000534000
   0.0014296100   -0.0000494600    0.0001480700
  -0.0014369500    0.0001489700   -0.0000510000
  -0.0001917400    0.0002959900    0.0001384500
   0.0001907800    0.0001396300    0.0002952000
   0.0014369500    0.0001489700   -0.0000510000
   0.0001917400    0.0002959900    0.0001384500
  -0.0001907800    0.0001396300    0.0002952000
  -0.0014296100   -0.0000494600    0.0001480700
   0.0002433900    0.0000879200    0.0000879200
   0.0000005600    0.0001448000    0.0001448000
  -0.0002416400    0.0000888700    0.0000888700
  -0.0000195800    0.0003601100    0.0003601100
   0.0000510300   -0.0001035500    0.0000530600
  -0.0000509400    0.0000534200   -0.0001027600
  -0.0004264000    0.0004627600    0.0001633700
   0.0004257800    0.0001642300    0.0004599800
  -0.0000000000   -0.0012852900   -0.0012847600
  -0.0000000000    0.0053439700    0.0003636100
  -0.0000000000    0.0008896700    0.0008853000
  -0.0000000000    0.0003576900    0.0053268800
   0.0002895700    0.0001710200    0.0000483300
   0.0000000300   -0.0000513700   -0.0000534000
  -0.0002895700    0.0000483300    0.0001710200
  -0.0000000300   -0.0000534000   -0.0000513700
   0.0000510300    0.0000530600   -0.0001035500
  -0.0000509400   -0.0001027600    0.0000534200
  -0.0004264000    0.0001633700    0.0004627600
   0.0004257800    0.0004599800    0.0001642300
  -0.0000000000   -0.0001181700   -0.0001181700
  -0.0000000000    0.0000350300    0.0000350300
  -0.0000000000    0.0014632800    0.0014632800
  -0.0000000000    0.0000356300    0.0000356300
   0.0000509400    0.0000534200   -0.0001027600
   0.0004264000    0.0004627600    0.0001633700
  -0.0004257800    0.0001642300    0.0004599800
  -0.0000510300   -0.0001035500    0.0000530600
   0.0014296100    0.0001480700   -0.0000494600
  -0.0014369500   -0.0000510000    0.0001489700
  -0.0001917400    0.0001384500    0.0002959900
   0.0001907800    0.0002952000    0.0001396300
  -0.0000000000   -0.0012847600   -0.0012852900
  -0.0000000000    0.0003636100    0.0053439700
  -0.0000000000    0.0008853000    0.0008896700
  -0.0000000000    0.0053268800    0.0003576900
   0.0000509400   -0.0001027600    0.0000534200
   0.0004264000    0.0001633700    0.0004627600
  -0.0004257800    0.0004599800    0.0001642300
  -0.0000510300    0.0000530600   -0.0001035500
   0.0002416400    0.0000888700    0.0000888700
   0.0000195800    0.0003601100    0.0003601100
  -0.0002433900    0.0000879200    0.0000879200
  -0.0000005600    0.0001448000    0.0001448000
