mesh: [    48,    48,    48 ]
nqpoint: 2769   
natom:   2      
phonon:
- q-position: [    0.0000000,    0.0000000,    0.0000000 ]
  weight: 1    
  band:
  - # 1
    frequency:     0.0039213547
  - # 2
    frequency:     0.0039213547
  - # 3
    frequency:     0.0039213547
  - # 4
    frequency:     1.4512328439
  - # 5
    frequency:     1.4512328439
  - # 6
    frequency:     1.4512328439

- q-position: [    0.0208333,    0.0000000,    0.0000000 ]
  weight: 8    
  band:
  - # 1
    frequency:     0.1358040388
  - # 2
    frequency:     0.1358040388
  - # 3
    frequency:     0.1998519180
  - # 4
    frequency:     1.4830474318
  - # 5
    frequency:     1.4830474318
  - # 6
    frequency:     3.6531816090

- q-position: [    0.0416667,    0.0000000,    0.0000000 ]
  weight: 8    
  band:
  - # 1
    frequency:     0.2651391580
  - # 2
    frequency:     0.2651391580
  - # 3
    frequency:     0.3974217822
  - # 4
    frequency:     1.5742319260
  - # 5
    frequency:     1.5742319260
  - # 6
    frequency:     3.6872467653

- q-position: [    0.0625000,    0.0000000,    0.0000000 ]
  weight: 8    
  band:
  - # 1
    frequency:     0.3849474682
  - # 2
    frequency:     0.3849474682
  - # 3
    frequency:     0.5906902479
  - # 4
    frequency:     1.7134726615
  - # 5
    frequency:     1.7134726615
  - # 6
    frequency:     3.7418894074

- q-position: [    0.0833333,    0.0000000,    0.0000000 ]
  weight: 8    
  band:
  - # 1
    frequency:     0.4954835472
  - # 2
    frequency:     0.4954835472
  - # 3
    frequency:     0.7778095501
  - # 4
    frequency:     1.8860930612
  - # 5
    frequency:     1.8860930612
  - # 6
    frequency:     3.8141226876

- q-position: [    0.1041667,    0.0000000,    0.0000000 ]
  weight: 8    
  band:
  - # 1
    frequency:     0.5985534988
  - # 2
    frequency:     0.5985534988
  - # 3
    frequency:     0.9572790156
  - # 4
    frequency:     2.0778472588
  - # 5
    frequency:     2.0778472588
  - # 6
    frequency:     3.9001464968

- q-position: [    0.1250000,    0.0000000,    0.0000000 ]
  weight: 8    
  band:
  - # 1
    frequency:     0.6959183250
  - # 2
    frequency:     0.6959183250
  - # 3
    frequency:     1.1279937204
  - # 4
    frequency:     2.2769829884
  - # 5
    frequency:     2.2769829884
  - # 6
    frequency:     3.9956445358

- q-position: [    0.1458333,    0.0000000,    0.0000000 ]
  weight: 8    
  band:
  - # 1
    frequency:     0.7887477291
  - # 2
    frequency:     0.7887477291
  - # 3
    frequency:     1.2892702974
  - # 4
    frequency:     2.4746096568
  - # 5
    frequency:     2.4746096568
  - # 6
    frequency:     4.0960766281

- q-position: [    0.1666667,    0.0000000,    0.0000000 ]
  weight: 8    
  band:
  - # 1
    frequency:     0.8776650784
  - # 2
    frequency:     0.8776650784
  - # 3
    frequency:     1.4408530626
  - # 4
    frequency:     2.6642921949
  - # 5
    frequency:     2.6642921949
  - # 6
    frequency:     4.1969369403

- q-position: [    0.1875000,    0.0000000,    0.0000000 ]
  weight: 8    
  band:
  - # 1
    frequency:     0.9629343300
  - # 2
    frequency:     0.9629343300
  - # 3
    frequency:     1.5829066704
  - # 4
    frequency:     2.8415148757
  - # 5
    frequency:     2.8415148757
  - # 6
    frequency:     4.2939633671

- q-position: [    0.2083333,    0.0000000,    0.0000000 ]
  weight: 8    
  band:
  - # 1
    frequency:     1.0446139991
  - # 2
    frequency:     1.0446139991
  - # 3
    frequency:     1.7159972918
  - # 4
    frequency:     3.0032429186
  - # 5
    frequency:     3.0032429186
  - # 6
    frequency:     4.3832960095

- q-position: [    0.2291667,    0.0000000,    0.0000000 ]
  weight: 8    
  band:
  - # 1
    frequency:     1.1226501330
  - # 2
    frequency:     1.1226501330
  - # 3
    frequency:     1.8410588326
  - # 4
    frequency:     3.1476076475
  - # 5
    frequency:     3.1476076475
  - # 6
    frequency:     4.4615911154

- q-position: [    0.2500000,    0.0000000,    0.0000000 ]
  weight: 8    
  band:
  - # 1
    frequency:     1.1969226395
  - # 2
    frequency:     1.1969226395
  - # 3
    frequency:     1.9593365155
  - # 4
    frequency:     3.2736842096
  - # 5
    frequency:     3.2736842096
  - # 6
    frequency:     4.5261009293

- q-position: [    0.2708333,    0.0000000,    0.0000000 ]
  weight: 8    
  band:
  - # 1
    frequency:     1.2672631263
  - # 2
    frequency:     1.2672631263
  - # 3
    frequency:     2.0722985530
  - # 4
    frequency:     3.3813275491
  - # 5
    frequency:     3.3813275491
  - # 6
    frequency:     4.5747307534

- q-position: [    0.2916667,    0.0000000,    0.0000000 ]
  weight: 8    
  band:
  - # 1
    frequency:     1.3334576389
  - # 2
    frequency:     1.3334576389
  - # 3
    frequency:     2.1815079882
  - # 4
    frequency:     3.4710413506
  - # 5
    frequency:     3.4710413506
  - # 6
    frequency:     4.6060837808

- q-position: [    0.3125000,    0.0000000,    0.0000000 ]
  weight: 8    
  band:
  - # 1
    frequency:     1.3952430007
  - # 2
    frequency:     1.3952430007
  - # 3
    frequency:     2.2884505702
  - # 4
    frequency:     3.5438635286
  - # 5
    frequency:     3.5438635286
  - # 6
    frequency:     4.6195033718

- q-position: [    0.3333333,    0.0000000,    0.0000000 ]
  weight: 8    
  band:
  - # 1
    frequency:     1.4523023158
  - # 2
    frequency:     1.4523023158
  - # 3
    frequency:     2.3943194290
  - # 4
    frequency:     3.6012581611
  - # 5
    frequency:     3.6012581611
  - # 6
    frequency:     4.6151225658

- q-position: [    0.3541667,    0.0000000,    0.0000000 ]
  weight: 8    
  band:
  - # 1
    frequency:     1.5042633369
  - # 2
    frequency:     1.5042633369
  - # 3
    frequency:     2.4997610845
  - # 4
    frequency:     3.6450078405
  - # 5
    frequency:     3.6450078405
  - # 6
    frequency:     4.5939325098

- q-position: [    0.3750000,    0.0000000,    0.0000000 ]
  weight: 8    
  band:
  - # 1
    frequency:     1.5507023567
  - # 2
    frequency:     1.5507023567
  - # 3
    frequency:     2.6045875457
  - # 4
    frequency:     3.6771030224
  - # 5
    frequency:     3.6771030224
  - # 6
    frequency:     4.5578852914

- q-position: [    0.3958333,    0.0000000,    0.0000000 ]
  weight: 8    
  band:
  - # 1
    frequency:     1.5911556133
  - # 2
    frequency:     1.5911556133
  - # 3
    frequency:     2.7074557532
  - # 4
    frequency:     3.6996268159
  - # 5
    frequency:     3.6996268159
  - # 6
    frequency:     4.5100503224

- q-position: [    0.4166667,    0.0000000,    0.0000000 ]
  weight: 8    
  band:
  - # 1
    frequency:     1.6251394782
  - # 2
    frequency:     1.6251394782
  - # 3
    frequency:     2.8055172811
  - # 4
    frequency:     3.7146353802
  - # 5
    frequency:     3.7146353802
  - # 6
    frequency:     4.4548370973

- q-position: [    0.4375000,    0.0000000,    0.0000000 ]
  weight: 8    
  band:
  - # 1
    frequency:     1.6521795336
  - # 2
    frequency:     1.6521795336
  - # 3
    frequency:     2.8940817940
  - # 4
    frequency:     3.7240361414
  - # 5
    frequency:     3.7240361414
  - # 6
    frequency:     4.3982480975

- q-position: [    0.4583333,    0.0000000,    0.0000000 ]
  weight: 8    
  band:
  - # 1
    frequency:     1.6718467896
  - # 2
    frequency:     1.6718467896
  - # 3
    frequency:     2.9664974491
  - # 4
    frequency:     3.7294686184
  - # 5
    frequency:     3.7294686184
  - # 6
    frequency:     4.3479563011

- q-position: [    0.4791667,    0.0000000,    0.0000000 ]
  weight: 8    
  band:
  - # 1
    frequency:     1.6837969151
  - # 2
    frequency:     1.6837969151
  - # 3
    frequency:     3.0148008957
  - # 4
    frequency:     3.7321954717
  - # 5
    frequency:     3.7321954717
  - # 6
    frequency:     4.3126445066

- q-position: [    0.5000000,    0.0000000,    0.0000000 ]
  weight: 4    
  band:
  - # 1
    frequency:     1.6878061760
  - # 2
    frequency:     1.6878061760
  - # 3
    frequency:     3.0318860306
  - # 4
    frequency:     3.7330135966
  - # 5
    frequency:     3.7330135966
  - # 6
    frequency:     4.2998432756

- q-position: [    0.0208333,    0.0208333,    0.0000000 ]
  weight: 6    
  band:
  - # 1
    frequency:     0.1470556115
  - # 2
    frequency:     0.1470556115
  - # 3
    frequency:     0.2426059635
  - # 4
    frequency:     1.4880815138
  - # 5
    frequency:     1.4880815138
  - # 6
    frequency:     3.6610054294

- q-position: [    0.0416667,    0.0208333,    0.0000000 ]
  weight: 24   
  band:
  - # 1
    frequency:     0.2434426932
  - # 2
    frequency:     0.2482625083
  - # 3
    frequency:     0.3918816408
  - # 4
    frequency:     1.5533553960
  - # 5
    frequency:     1.5590460515
  - # 6
    frequency:     3.6888389202

- q-position: [    0.0625000,    0.0208333,    0.0000000 ]
  weight: 24   
  band:
  - # 1
    frequency:     0.3543371370
  - # 2
    frequency:     0.3631600717
  - # 3
    frequency:     0.5657157335
  - # 4
    frequency:     1.6701865923
  - # 5
    frequency:     1.6854909966
  - # 6
    frequency:     3.7357734782

- q-position: [    0.0833333,    0.0208333,    0.0000000 ]
  weight: 24   
  band:
  - # 1
    frequency:     0.4619315667
  - # 2
    frequency:     0.4729445281
  - # 3
    frequency:     0.7439778690
  - # 4
    frequency:     1.8253067261
  - # 5
    frequency:     1.8499959610
  - # 6
    frequency:     3.8007096625

- q-position: [    0.1041667,    0.0208333,    0.0000000 ]
  weight: 24   
  band:
  - # 1
    frequency:     0.5634400309
  - # 2
    frequency:     0.5765443934
  - # 3
    frequency:     0.9194563873
  - # 4
    frequency:     2.0045611475
  - # 5
    frequency:     2.0376576282
  - # 6
    frequency:     3.8804130254

- q-position: [    0.1250000,    0.0208333,    0.0000000 ]
  weight: 24   
  band:
  - # 1
    frequency:     0.6592969379
  - # 2
    frequency:     0.6751616826
  - # 3
    frequency:     1.0887843238
  - # 4
    frequency:     2.1955279839
  - # 5
    frequency:     2.2360069939
  - # 6
    frequency:     3.9708632352

- q-position: [    0.1458333,    0.0208333,    0.0000000 ]
  weight: 24   
  band:
  - # 1
    frequency:     0.7503876698
  - # 2
    frequency:     0.7698183631
  - # 3
    frequency:     1.2501825901
  - # 4
    frequency:     2.3884563363
  - # 5
    frequency:     2.4354168401
  - # 6
    frequency:     4.0676907608

- q-position: [    0.1666667,    0.0208333,    0.0000000 ]
  weight: 24   
  band:
  - # 1
    frequency:     0.8373820476
  - # 2
    frequency:     0.8610356925
  - # 3
    frequency:     1.4027643099
  - # 4
    frequency:     2.5761429654
  - # 5
    frequency:     2.6287998730
  - # 6
    frequency:     4.1664642069

- q-position: [    0.1875000,    0.0208333,    0.0000000 ]
  weight: 24   
  band:
  - # 1
    frequency:     0.9206811337
  - # 2
    frequency:     0.9489557298
  - # 3
    frequency:     1.5462745522
  - # 4
    frequency:     2.7534663692
  - # 5
    frequency:     2.8110870235
  - # 6
    frequency:     4.2629160874

- q-position: [    0.2083333,    0.0208333,    0.0000000 ]
  weight: 24   
  band:
  - # 1
    frequency:     1.0004975426
  - # 2
    frequency:     1.0334970444
  - # 3
    frequency:     1.6809686941
  - # 4
    frequency:     2.9169324248
  - # 5
    frequency:     2.9787699892
  - # 6
    frequency:     4.3531163105

- q-position: [    0.2291667,    0.0208333,    0.0000000 ]
  weight: 24   
  band:
  - # 1
    frequency:     1.0769287960
  - # 2
    frequency:     1.1144602509
  - # 3
    frequency:     1.8075348938
  - # 4
    frequency:     3.0643243217
  - # 5
    frequency:     3.1295658403
  - # 6
    frequency:     4.4335995514

- q-position: [    0.2500000,    0.0208333,    0.0000000 ]
  weight: 24   
  band:
  - # 1
    frequency:     1.1499987565
  - # 2
    frequency:     1.1915853590
  - # 3
    frequency:     1.9270216429
  - # 4
    frequency:     3.1944486525
  - # 5
    frequency:     3.2621812544
  - # 6
    frequency:     4.5014559068

- q-position: [    0.2708333,    0.0208333,    0.0000000 ]
  weight: 24   
  band:
  - # 1
    frequency:     1.2196730096
  - # 2
    frequency:     1.2645774307
  - # 3
    frequency:     2.0407488601
  - # 4
    frequency:     3.3069478007
  - # 5
    frequency:     3.3761420135
  - # 6
    frequency:     4.5543957070

- q-position: [    0.2916667,    0.0208333,    0.0000000 ]
  weight: 24   
  band:
  - # 1
    frequency:     1.2858584493
  - # 2
    frequency:     1.3331142372
  - # 3
    frequency:     2.1501886836
  - # 4
    frequency:     3.4021522748
  - # 5
    frequency:     3.4716605431
  - # 6
    frequency:     4.5907990452

- q-position: [    0.3125000,    0.0208333,    0.0000000 ]
  weight: 24   
  band:
  - # 1
    frequency:     1.3483954649
  - # 2
    frequency:     1.3968451205
  - # 3
    frequency:     2.2568078548
  - # 4
    frequency:     3.4809546230
  - # 5
    frequency:     3.5495233073
  - # 6
    frequency:     4.6097596764

- q-position: [    0.3333333,    0.0208333,    0.0000000 ]
  weight: 24   
  band:
  - # 1
    frequency:     1.4070487194
  - # 2
    frequency:     1.4553872770
  - # 3
    frequency:     2.3618690717
  - # 4
    frequency:     3.5446933050
  - # 5
    frequency:     3.6109867269
  - # 6
    frequency:     4.6111326036

- q-position: [    0.3541667,    0.0208333,    0.0000000 ]
  weight: 24   
  band:
  - # 1
    frequency:     1.4615007264
  - # 2
    frequency:     1.5083240894
  - # 3
    frequency:     2.4661932483
  - # 4
    frequency:     3.5950395938
  - # 5
    frequency:     3.6576747664
  - # 6
    frequency:     4.5955958005

- q-position: [    0.3750000,    0.0208333,    0.0000000 ]
  weight: 24   
  band:
  - # 1
    frequency:     1.5113512709
  - # 2
    frequency:     1.5552091151
  - # 3
    frequency:     2.5698866406
  - # 4
    frequency:     3.6338836913
  - # 5
    frequency:     3.6914740601
  - # 6
    frequency:     4.5647394930

- q-position: [    0.3958333,    0.0208333,    0.0000000 ]
  weight: 24   
  band:
  - # 1
    frequency:     1.5561249439
  - # 2
    frequency:     1.5955781808
  - # 3
    frequency:     2.6720356249
  - # 4
    frequency:     3.6632183883
  - # 5
    frequency:     3.7144240160
  - # 6
    frequency:     4.5212001682

- q-position: [    0.4166667,    0.0208333,    0.0000000 ]
  weight: 24   
  band:
  - # 1
    frequency:     1.5952883339
  - # 2
    frequency:     1.6289704786
  - # 3
    frequency:     2.7703724641
  - # 4
    frequency:     3.6850203615
  - # 5
    frequency:     3.7286000980
  - # 6
    frequency:     4.4688547827

- q-position: [    0.4375000,    0.0208333,    0.0000000 ]
  weight: 24   
  band:
  - # 1
    frequency:     1.6282773883
  - # 2
    frequency:     1.6549577822
  - # 3
    frequency:     2.8609398099
  - # 4
    frequency:     3.7011310212
  - # 5
    frequency:     3.7359887144
  - # 6
    frequency:     4.4130614380

- q-position: [    0.4583333,    0.0208333,    0.0000000 ]
  weight: 24   
  band:
  - # 1
    frequency:     1.6545338538
  - # 2
    frequency:     1.6731791806
  - # 3
    frequency:     2.9378887256
  - # 4
    frequency:     3.7131409756
  - # 5
    frequency:     3.7383533603
  - # 6
    frequency:     4.3608177223

- q-position: [    0.4791667,    0.0208333,    0.0000000 ]
  weight: 24   
  band:
  - # 1
    frequency:     1.6735475262
  - # 2
    frequency:     1.6833771414
  - # 3
    frequency:     2.9938138241
  - # 4
    frequency:     3.7222845566
  - # 5
    frequency:     3.7371014764
  - # 6
    frequency:     4.3204230896

- q-position: [    0.5000000,    0.0208333,    0.0000000 ]
  weight: 24   
  band:
  - # 1
    frequency:     1.6848987848
  - # 2
    frequency:     1.6854293979
  - # 3
    frequency:     3.0213165312
  - # 4
    frequency:     3.7293528639
  - # 5
    frequency:     3.7331914178
  - # 6
    frequency:     4.2999108805

- q-position: [   -0.4791667,    0.0208333,    0.0000000 ]
  weight: 24   
  band:
  - # 1
    frequency:     1.6792970018
  - # 2
    frequency:     1.6882944985
  - # 3
    frequency:     3.0157569859
  - # 4
    frequency:     3.7272760274
  - # 5
    frequency:     3.7346344620
  - # 6
    frequency:     4.3040842126

- q-position: [   -0.4583333,    0.0208333,    0.0000000 ]
  weight: 24   
  band:
  - # 1
    frequency:     1.6652225002
  - # 2
    frequency:     1.6835908371
  - # 3
    frequency:     2.9781827629
  - # 4
    frequency:     3.7193536363
  - # 5
    frequency:     3.7378912789
  - # 6
    frequency:     4.3319188257

- q-position: [   -0.4375000,    0.0208333,    0.0000000 ]
  weight: 24   
  band:
  - # 1
    frequency:     1.6436027942
  - # 2
    frequency:     1.6707991108
  - # 3
    frequency:     2.9144738117
  - # 4
    frequency:     3.7089774736
  - # 5
    frequency:     3.7383733012
  - # 6
    frequency:     4.3771953729

- q-position: [   -0.4166667,    0.0208333,    0.0000000 ]
  weight: 24   
  band:
  - # 1
    frequency:     1.6149194094
  - # 2
    frequency:     1.6500747037
  - # 3
    frequency:     2.8322889706
  - # 4
    frequency:     3.6953148645
  - # 5
    frequency:     3.7348703495
  - # 6
    frequency:     4.4315170982

- q-position: [   -0.3958333,    0.0208333,    0.0000000 ]
  weight: 24   
  band:
  - # 1
    frequency:     1.5797331917
  - # 2
    frequency:     1.6216929209
  - # 3
    frequency:     2.7386007612
  - # 4
    frequency:     3.6770776110
  - # 5
    frequency:     3.7257943562
  - # 6
    frequency:     4.4869099668

- q-position: [   -0.3750000,    0.0208333,    0.0000000 ]
  weight: 24   
  band:
  - # 1
    frequency:     1.5386369185
  - # 2
    frequency:     1.5860177135
  - # 3
    frequency:     2.6386207302
  - # 4
    frequency:     3.6526112021
  - # 5
    frequency:     3.7092827472
  - # 6
    frequency:     4.5369094462

- q-position: [   -0.3541667,    0.0208333,    0.0000000 ]
  weight: 24   
  band:
  - # 1
    frequency:     1.4922096472
  - # 2
    frequency:     1.5434693208
  - # 3
    frequency:     2.5357115009
  - # 4
    frequency:     3.6200213843
  - # 5
    frequency:     3.6833132812
  - # 6
    frequency:     4.5766665094

- q-position: [   -0.3333333,    0.0208333,    0.0000000 ]
  weight: 24   
  band:
  - # 1
    frequency:     1.4409787388
  - # 2
    frequency:     1.4944954030
  - # 3
    frequency:     2.4316593681
  - # 4
    frequency:     3.5773052798
  - # 5
    frequency:     3.6458224517
  - # 6
    frequency:     4.6027345351

- q-position: [   -0.3125000,    0.0208333,    0.0000000 ]
  weight: 24   
  band:
  - # 1
    frequency:     1.3853933468
  - # 2
    frequency:     1.4395482168
  - # 3
    frequency:     2.3270139317
  - # 4
    frequency:     3.5224782106
  - # 5
    frequency:     3.5948222025
  - # 6
    frequency:     4.6128375973

- q-position: [   -0.2916667,    0.0208333,    0.0000000 ]
  weight: 24   
  band:
  - # 1
    frequency:     1.3258107001
  - # 2
    frequency:     1.3790686143
  - # 3
    frequency:     2.2214108850
  - # 4
    frequency:     3.4536954096
  - # 5
    frequency:     3.5285122995
  - # 6
    frequency:     4.6056965507

- q-position: [   -0.2708333,    0.0208333,    0.0000000 ]
  weight: 24   
  band:
  - # 1
    frequency:     1.2624941785
  - # 2
    frequency:     1.3134764444
  - # 3
    frequency:     2.1138642515
  - # 4
    frequency:     3.3693693643
  - # 5
    frequency:     3.4453878095
  - # 6
    frequency:     4.5809114776

- q-position: [   -0.2500000,    0.0208333,    0.0000000 ]
  weight: 24   
  band:
  - # 1
    frequency:     1.1956203633
  - # 2
    frequency:     1.2431662160
  - # 3
    frequency:     2.0030264251
  - # 4
    frequency:     3.2682842548
  - # 5
    frequency:     3.3443428148
  - # 6
    frequency:     4.5388829693

- q-position: [   -0.2291667,    0.0208333,    0.0000000 ]
  weight: 24   
  band:
  - # 1
    frequency:     1.1252911102
  - # 2
    frequency:     1.1685063295
  - # 3
    frequency:     1.8874126918
  - # 4
    frequency:     3.1497101975
  - # 5
    frequency:     3.2247731215
  - # 6
    frequency:     4.4807561153

- q-position: [   -0.2083333,    0.0208333,    0.0000000 ]
  weight: 24   
  band:
  - # 1
    frequency:     1.0515460021
  - # 2
    frequency:     1.0898394360
  - # 3
    frequency:     1.7655862734
  - # 4
    frequency:     3.0135221878
  - # 5
    frequency:     3.0866828243
  - # 6
    frequency:     4.4083748764

- q-position: [   -0.1875000,    0.0208333,    0.0000000 ]
  weight: 24   
  band:
  - # 1
    frequency:     0.9743697152
  - # 2
    frequency:     1.0074801802
  - # 3
    frequency:     1.6363027293
  - # 4
    frequency:     2.8603322213
  - # 5
    frequency:     2.9308028183
  - # 6
    frequency:     4.3242369056

- q-position: [   -0.1666667,    0.0208333,    0.0000000 ]
  weight: 24   
  band:
  - # 1
    frequency:     0.8936872631
  - # 2
    frequency:     0.9217043627
  - # 3
    frequency:     1.4986174723
  - # 4
    frequency:     2.6916486595
  - # 5
    frequency:     2.7587343889
  - # 6
    frequency:     4.2314394453

- q-position: [   -0.1458333,    0.0208333,    0.0000000 ]
  weight: 24   
  band:
  - # 1
    frequency:     0.8093378074
  - # 2
    frequency:     0.8327202490
  - # 3
    frequency:     1.3519655088
  - # 4
    frequency:     2.5100847990
  - # 5
    frequency:     2.5731383393
  - # 6
    frequency:     4.1336062384

- q-position: [   -0.1250000,    0.0208333,    0.0000000 ]
  weight: 24   
  band:
  - # 1
    frequency:     0.7210170007
  - # 2
    frequency:     0.7406093637
  - # 3
    frequency:     1.1962277756
  - # 4
    frequency:     2.3196472126
  - # 5
    frequency:     2.3779986787
  - # 6
    frequency:     4.0347843541

- q-position: [   -0.1041667,    0.0208333,    0.0000000 ]
  weight: 24   
  band:
  - # 1
    frequency:     0.6281886508
  - # 2
    frequency:     0.6452269589
  - # 3
    frequency:     1.0318057178
  - # 4
    frequency:     2.1261350904
  - # 5
    frequency:     2.1789925036
  - # 6
    frequency:     3.9392995598

- q-position: [   -0.0833333,    0.0208333,    0.0000000 ]
  weight: 24   
  band:
  - # 1
    frequency:     0.5300227218
  - # 2
    frequency:     0.5460858745
  - # 3
    frequency:     0.8597443524
  - # 4
    frequency:     1.9376461082
  - # 5
    frequency:     1.9839684251
  - # 6
    frequency:     3.8515600467

- q-position: [   -0.0625000,    0.0208333,    0.0000000 ]
  weight: 24   
  band:
  - # 1
    frequency:     0.4256160077
  - # 2
    frequency:     0.4423858938
  - # 3
    frequency:     0.6820101570
  - # 4
    frequency:     1.7650498570
  - # 5
    frequency:     1.8034077900
  - # 6
    frequency:     3.7757992037

- q-position: [   -0.0416667,    0.0208333,    0.0000000 ]
  weight: 24   
  band:
  - # 1
    frequency:     0.3153752762
  - # 2
    frequency:     0.3337795127
  - # 3
    frequency:     0.5023111276
  - # 4
    frequency:     1.6220164361
  - # 5
    frequency:     1.6504221345
  - # 6
    frequency:     3.7157370361

- q-position: [   -0.0208333,    0.0208333,    0.0000000 ]
  weight: 12   
  band:
  - # 1
    frequency:     0.2068823939
  - # 2
    frequency:     0.2238308495
  - # 3
    frequency:     0.3294198614
  - # 4
    frequency:     1.5240258450
  - # 5
    frequency:     1.5394411187
  - # 6
    frequency:     3.6740944045

- q-position: [    0.0416667,    0.0416667,    0.0000000 ]
  weight: 6    
  band:
  - # 1
    frequency:     0.2830796266
  - # 2
    frequency:     0.2830796266
  - # 3
    frequency:     0.4830087574
  - # 4
    frequency:     1.5895051727
  - # 5
    frequency:     1.5895051727
  - # 6
    frequency:     3.7158728374

- q-position: [    0.0625000,    0.0416667,    0.0000000 ]
  weight: 24   
  band:
  - # 1
    frequency:     0.3606641092
  - # 2
    frequency:     0.3644828497
  - # 3
    frequency:     0.6176298160
  - # 4
    frequency:     1.6773501344
  - # 5
    frequency:     1.6842890630
  - # 6
    frequency:     3.7577715228

- q-position: [    0.0833333,    0.0416667,    0.0000000 ]
  weight: 24   
  band:
  - # 1
    frequency:     0.4510100695
  - # 2
    frequency:     0.4612751482
  - # 3
    frequency:     0.7699465588
  - # 4
    frequency:     1.8063947061
  - # 5
    frequency:     1.8285253769
  - # 6
    frequency:     3.8140112130

- q-position: [    0.1041667,    0.0416667,    0.0000000 ]
  weight: 24   
  band:
  - # 1
    frequency:     0.5427551849
  - # 2
    frequency:     0.5594449311
  - # 3
    frequency:     0.9285467275
  - # 4
    frequency:     1.9640058835
  - # 5
    frequency:     2.0033554413
  - # 6
    frequency:     3.8838297623

- q-position: [    0.1250000,    0.0416667,    0.0000000 ]
  weight: 24   
  band:
  - # 1
    frequency:     0.6321608999
  - # 2
    frequency:     0.6556081936
  - # 3
    frequency:     1.0870566923
  - # 4
    frequency:     2.1380875886
  - # 5
    frequency:     2.1941041462
  - # 6
    frequency:     3.9645636349

- q-position: [    0.1458333,    0.0416667,    0.0000000 ]
  weight: 24   
  band:
  - # 1
    frequency:     0.7183228143
  - # 2
    frequency:     0.7493363352
  - # 3
    frequency:     1.2416421713
  - # 4
    frequency:     2.3185206742
  - # 5
    frequency:     2.3898634254
  - # 6
    frequency:     4.0525951955

- q-position: [    0.1666667,    0.0416667,    0.0000000 ]
  weight: 24   
  band:
  - # 1
    frequency:     0.8012003230
  - # 2
    frequency:     0.8406326063
  - # 3
    frequency:     1.3900459283
  - # 4
    frequency:     2.4974946571
  - # 5
    frequency:     2.5826593226
  - # 6
    frequency:     4.1439491325

- q-position: [    0.1875000,    0.0416667,    0.0000000 ]
  weight: 24   
  band:
  - # 1
    frequency:     0.8809472082
  - # 2
    frequency:     0.9293774246
  - # 3
    frequency:     1.5310769290
  - # 4
    frequency:     2.6692819052
  - # 5
    frequency:     2.7667385015
  - # 6
    frequency:     4.2346348236

- q-position: [    0.2083333,    0.0416667,    0.0000000 ]
  weight: 24   
  band:
  - # 1
    frequency:     0.9577235406
  - # 2
    frequency:     1.0152975500
  - # 3
    frequency:     1.6643165778
  - # 4
    frequency:     2.8298661590
  - # 5
    frequency:     2.9380257928
  - # 6
    frequency:     4.3208696491

- q-position: [    0.2291667,    0.0416667,    0.0000000 ]
  weight: 24   
  band:
  - # 1
    frequency:     1.0316557305
  - # 2
    frequency:     1.0980263755
  - # 3
    frequency:     1.7899385198
  - # 4
    frequency:     2.9766017357
  - # 5
    frequency:     3.0937441671
  - # 6
    frequency:     4.3992339250

- q-position: [    0.2500000,    0.0416667,    0.0000000 ]
  weight: 24   
  band:
  - # 1
    frequency:     1.1028293360
  - # 2
    frequency:     1.1771536606
  - # 3
    frequency:     1.9085808567
  - # 4
    frequency:     3.1079439076
  - # 5
    frequency:     3.2321554326
  - # 6
    frequency:     4.4667799987

- q-position: [    0.2708333,    0.0416667,    0.0000000 ]
  weight: 24   
  band:
  - # 1
    frequency:     1.1712819371
  - # 2
    frequency:     1.2522514861
  - # 3
    frequency:     2.0212331116
  - # 4
    frequency:     3.2232410730
  - # 5
    frequency:     3.3523787314
  - # 6
    frequency:     4.5211102631

- q-position: [    0.2916667,    0.0416667,    0.0000000 ]
  weight: 24   
  band:
  - # 1
    frequency:     1.2369907869
  - # 2
    frequency:     1.3228817292
  - # 3
    frequency:     2.1291140986
  - # 4
    frequency:     3.3225691364
  - # 5
    frequency:     3.4542544862
  - # 6
    frequency:     4.5604360338

- q-position: [    0.3125000,    0.0416667,    0.0000000 ]
  weight: 24   
  band:
  - # 1
    frequency:     1.2998576100
  - # 2
    frequency:     1.3885923085
  - # 3
    frequency:     2.2335256429
  - # 4
    frequency:     3.4065912331
  - # 5
    frequency:     3.5382324306
  - # 6
    frequency:     4.5836274529

- q-position: [    0.3333333,    0.0416667,    0.0000000 ]
  weight: 24   
  band:
  - # 1
    frequency:     1.3596942581
  - # 2
    frequency:     1.4489091207
  - # 3
    frequency:     2.3356734565
  - # 4
    frequency:     3.4764311154
  - # 5
    frequency:     3.6052706174
  - # 6
    frequency:     4.5902634544

- q-position: [    0.3541667,    0.0416667,    0.0000000 ]
  weight: 24   
  band:
  - # 1
    frequency:     1.4162125238
  - # 2
    frequency:     1.5033305817
  - # 3
    frequency:     2.4364514436
  - # 4
    frequency:     3.5335530253
  - # 5
    frequency:     3.6567377590
  - # 6
    frequency:     4.5806908618

- q-position: [    0.3750000,    0.0416667,    0.0000000 ]
  weight: 24   
  band:
  - # 1
    frequency:     1.4690206622
  - # 2
    frequency:     1.5513311532
  - # 3
    frequency:     2.5361895705
  - # 4
    frequency:     3.5796442042
  - # 5
    frequency:     3.6943144562
  - # 6
    frequency:     4.5561032781

- q-position: [    0.3958333,    0.0416667,    0.0000000 ]
  weight: 24   
  band:
  - # 1
    frequency:     1.5176284582
  - # 2
    frequency:     1.5923779211
  - # 3
    frequency:     2.6343684502
  - # 4
    frequency:     3.6164985488
  - # 5
    frequency:     3.7198901857
  - # 6
    frequency:     4.5186530133

- q-position: [    0.4166667,    0.0416667,    0.0000000 ]
  weight: 24   
  band:
  - # 1
    frequency:     1.5614619925
  - # 2
    frequency:     1.6259602246
  - # 3
    frequency:     2.7293087715
  - # 4
    frequency:     3.6459016762
  - # 5
    frequency:     3.7354522162
  - # 6
    frequency:     4.4716090211

- q-position: [    0.4375000,    0.0416667,    0.0000000 ]
  weight: 24   
  band:
  - # 1
    frequency:     1.5998884406
  - # 2
    frequency:     1.6516281859
  - # 3
    frequency:     2.8178633857
  - # 4
    frequency:     3.6695191680
  - # 5
    frequency:     3.7429593319
  - # 6
    frequency:     4.4195568628

- q-position: [    0.4583333,    0.0416667,    0.0000000 ]
  weight: 24   
  band:
  - # 1