nqpoint: 404    
npath: 4      
natom: 2      
phonon:
- q-position: [    0.0000000,    0.0000000,    0.0000000 ]
  distance:    0.0000000
  band:
  - # 1
    frequency:    0.0018824826
  - # 2
    frequency:    0.0018824826
  - # 3
    frequency:    0.0026100620
  - # 4
    frequency:    0.8038016041
  - # 5
    frequency:    0.8038016041
  - # 6
    frequency:    3.2001568943

- q-position: [    0.0050000,    0.0025000,    0.0075000 ]
  distance:    0.0017130
  band:
  - # 1
    frequency:    0.0350341577
  - # 2
    frequency:    0.0368163906
  - # 3
    frequency:    0.0529518462
  - # 4
    frequency:    0.8067865494
  - # 5
    frequency:    0.8072757923
  - # 6
    frequency:    3.2004220605

- q-position: [    0.0100000,    0.0050000,    0.0150000 ]
  distance:    0.0034259
  band:
  - # 1
    frequency:    0.0697816058
  - # 2
    frequency:    0.0732658420
  - # 3
    frequency:    0.1057536614
  - # 4
    frequency:    0.8156650607
  - # 5
    frequency:    0.8176098391
  - # 6
    frequency:    3.2012136889

- q-position: [    0.0150000,    0.0075000,    0.0225000 ]
  distance:    0.0051389
  band:
  - # 1
    frequency:    0.1041402235
  - # 2
    frequency:    0.1091732013
  - # 3
    frequency:    0.1584709389
  - # 4
    frequency:    0.8302143187
  - # 5
    frequency:    0.8345446051
  - # 6
    frequency:    3.2025202144

- q-position: [    0.0200000,    0.0100000,    0.0300000 ]
  distance:    0.0068519
  band:
  - # 1
    frequency:    0.1379314800
  - # 2
    frequency:    0.1443173451
  - # 3
    frequency:    0.2110382655
  - # 4
    frequency:    0.8500824825
  - # 5
    frequency:    0.8576690737
  - # 6
    frequency:    3.2043225121

- q-position: [    0.0250000,    0.0125000,    0.0375000 ]
  distance:    0.0085649
  band:
  - # 1
    frequency:    0.1710230280
  - # 2
    frequency:    0.1785537452
  - # 3
    frequency:    0.2634065347
  - # 4
    frequency:    0.8748147443
  - # 5
    frequency:    0.8864496720
  - # 6
    frequency:    3.2065941193

- q-position: [    0.0300000,    0.0150000,    0.0450000 ]
  distance:    0.0102778
  band:
  - # 1
    frequency:    0.2033213743
  - # 2
    frequency:    0.2118061733
  - # 3
    frequency:    0.3155324214
  - # 4
    frequency:    0.9038840895
  - # 5
    frequency:    0.9202667632
  - # 6
    frequency:    3.2093015410

- q-position: [    0.0350000,    0.0175000,    0.0525000 ]
  distance:    0.0119908
  band:
  - # 1
    frequency:    0.2347666659
  - # 2
    frequency:    0.2440552641
  - # 3
    frequency:    0.3673766341
  - # 4
    frequency:    0.9367226191
  - # 5
    frequency:    0.9584535134
  - # 6
    frequency:    3.2124046331

- q-position: [    0.0400000,    0.0200000,    0.0600000 ]
  distance:    0.0137038
  band:
  - # 1
    frequency:    0.2653252976
  - # 2
    frequency:    0.2753224991
  - # 3
    frequency:    0.4189031375
  - # 4
    frequency:    0.9727498900
  - # 5
    frequency:    1.0003320649
  - # 6
    frequency:    3.2158570563

- q-position: [    0.0450000,    0.0225000,    0.0675000 ]
  distance:    0.0154168
  band:
  - # 1
    frequency:    0.2949817848
  - # 2
    frequency:    0.3056536015
  - # 3
    frequency:    0.4700786189
  - # 4
    frequency:    1.0113959345
  - # 5
    frequency:    1.0452430917
  - # 6
    frequency:    3.2196067936

- q-position: [    0.0500000,    0.0250000,    0.0750000 ]
  distance:    0.0171297
  band:
  - # 1
    frequency:    0.3237314225
  - # 2
    frequency:    0.3351045064
  - # 3
    frequency:    0.5208721094
  - # 4
    frequency:    1.0521179985
  - # 5
    frequency:    1.0925668308
  - # 6
    frequency:    3.2235967222

- q-position: [    0.0550000,    0.0275000,    0.0825000 ]
  distance:    0.0188427
  band:
  - # 1
    frequency:    0.3515746048
  - # 2
    frequency:    0.3637313504
  - # 3
    frequency:    0.5712547371
  - # 4
    frequency:    1.0944112139
  - # 5
    frequency:    1.1417356737
  - # 6
    frequency:    3.2277652313

- q-position: [    0.0600000,    0.0300000,    0.0900000 ]
  distance:    0.0205557
  band:
  - # 1
    frequency:    0.3785130398
  - # 2
    frequency:    0.3915844973
  - # 3
    frequency:    0.6211995765
  - # 4
    frequency:    1.1378141633
  - # 5
    frequency:    1.1922397362
  - # 6
    frequency:    3.2320468759

- q-position: [    0.0650000,    0.0325000,    0.0975000 ]
  distance:    0.0222687
  band:
  - # 1
    frequency:    0.4045476583
  - # 2
    frequency:    0.4187058259
  - # 3
    frequency:    0.6706815532
  - # 4
    frequency:    1.1819106042
  - # 5
    frequency:    1.2436273526
  - # 6
    frequency:    3.2363730579

- q-position: [    0.0700000,    0.0350000,    0.1050000 ]
  distance:    0.0239816
  band:
  - # 1
    frequency:    0.4296778219
  - # 2
    frequency:    0.4451282730
  - # 3
    frequency:    0.7196773661
  - # 4
    frequency:    1.2263285941
  - # 5
    frequency:    1.2955023682
  - # 6
    frequency:    3.2406727249

- q-position: [    0.0750000,    0.0375000,    0.1125000 ]
  distance:    0.0256946
  band:
  - # 1
    frequency:    0.4539014093
  - # 2
    frequency:    0.4708767269
  - # 3
    frequency:    0.7681653969
  - # 4
    frequency:    1.2707380547
  - # 5
    frequency:    1.3475197264
  - # 6
    frequency:    3.2448730781

- q-position: [    0.0800000,    0.0400000,    0.1200000 ]
  distance:    0.0274076
  band:
  - # 1
    frequency:    0.4772154226
  - # 2
    frequency:    0.4959695959
  - # 3
    frequency:    0.8161255869
  - # 4
    frequency:    1.3148475513
  - # 5
    frequency:    1.3993803985
  - # 6
    frequency:    3.2489002814

- q-position: [    0.0850000,    0.0425000,    0.1275000 ]
  distance:    0.0291206
  band:
  - # 1
    frequency:    0.4996168466
  - # 2
    frequency:    0.5204206061
  - # 3
    frequency:    0.8635392704
  - # 4
    frequency:    1.3584008139
  - # 5
    frequency:    1.4508263092
  - # 6
    frequency:    3.2526801639

- q-position: [    0.0900000,    0.0450000,    0.1350000 ]
  distance:    0.0308335
  band:
  - # 1
    frequency:    0.5211035864
  - # 2
    frequency:    0.5442405690
  - # 3
    frequency:    0.9103889601
  - # 4
    frequency:    1.4011733262
  - # 5
    frequency:    1.5016356192
  - # 6
    frequency:    3.2561389096

- q-position: [    0.0950000,    0.0475000,    0.1425000 ]
  distance:    0.0325465
  band:
  - # 1
    frequency:    0.5416753724
  - # 2
    frequency:    0.5674389827
  - # 3
    frequency:    0.9566580839
  - # 4
    frequency:    1.4429691630
  - # 5
    frequency:    1.5516185285
  - # 6
    frequency:    3.2592037284

- q-position: [    0.1000000,    0.0500000,    0.1500000 ]
  distance:    0.0342595
  band:
  - # 1
    frequency:    0.5613345741
  - # 2
    frequency:    0.5900254106
  - # 3
    frequency:    1.0023306783
  - # 4
    frequency:    1.4836181608
  - # 5
    frequency:    1.6006136427
  - # 6
    frequency:    3.2618035038

- q-position: [    0.1050000,    0.0525000,    0.1575000 ]
  distance:    0.0359724
  band:
  - # 1
    frequency:    0.5800868961
  - # 2
    frequency:    0.6120106233
  - # 3
    frequency:    1.0473910416
  - # 4
    frequency:    1.5229734401
  - # 5
    frequency:    1.6484848800
  - # 6
    frequency:    3.2638694133

- q-position: [    0.1100000,    0.0550000,    0.1650000 ]
  distance:    0.0376854
  band:
  - # 1
    frequency:    0.5979419445
  - # 2
    frequency:    0.6334075132
  - # 3
    frequency:    1.0918233550
  - # 4
    frequency:    1.5609092688
  - # 5
    frequency:    1.6951188595
  - # 6
    frequency:    3.2653355192

- q-position: [    0.1150000,    0.0575000,    0.1725000 ]
  distance:    0.0393984
  band:
  - # 1
    frequency:    0.6149136664
  - # 2
    frequency:    0.6542317971
  - # 3
    frequency:    1.1356112795
  - # 4
    frequency:    1.5973192332
  - # 5
    frequency:    1.7404227041
  - # 6
    frequency:    3.2661393269

- q-position: [    0.1200000,    0.0600000,    0.1800000 ]
  distance:    0.0411114
  band:
  - # 1
    frequency:    0.6310206658
  - # 2
    frequency:    0.6745025258
  - # 3
    frequency:    1.1787375349
  - # 4
    frequency:    1.6321146777
  - # 5
    frequency:    1.7843221871
  - # 6
    frequency:    3.2662223098

- q-position: [    0.1250000,    0.0625000,    0.1875000 ]
  distance:    0.0428243
  band:
  - # 1
    frequency:    0.6462864042
  - # 2
    frequency:    0.6942424179
  - # 3
    frequency:    1.2211834712
  - # 4
    frequency:    1.6652233714
  - # 5
    frequency:    1.8267601559
  - # 6
    frequency:    3.2655304015

- q-position: [    0.1300000,    0.0650000,    0.1950000 ]
  distance:    0.0445373
  band:
  - # 1
    frequency:    0.6607392912
  - # 2
    frequency:    0.7134780306
  - # 3
    frequency:    1.2629286396
  - # 4
    frequency:    1.6965883652
  - # 5
    frequency:    1.8676951762
  - # 6
    frequency:    3.2640144529

- q-position: [    0.1350000,    0.0675000,    0.2025000 ]
  distance:    0.0462503
  band:
  - # 1
    frequency:    0.6744126695
  - # 2
    frequency:    0.7322397812
  - # 3
    frequency:    1.3039503719
  - # 4
    frequency:    1.7261670012
  - # 5
    frequency:    1.9071003454
  - # 6
    frequency:    3.2616306580

- q-position: [    0.1400000,    0.0700000,    0.2100000 ]
  distance:    0.0479633
  band:
  - # 1
    frequency:    0.6873447002
  - # 2
    frequency:    0.7505618252
  - # 3
    frequency:    1.3442233779
  - # 4
    frequency:    1.7539300457
  - # 5
    frequency:    1.9449622296
  - # 6
    frequency:    3.2583409462

- q-position: [    0.1450000,    0.0725000,    0.2175000 ]
  distance:    0.0496762
  band:
  - # 1
    frequency:    0.6995781503
  - # 2
    frequency:    0.7684818024
  - # 3
    frequency:    1.3837193696
  - # 4
    frequency:    1.7798609181
  - # 5
    frequency:    1.9812798892
  - # 6
    frequency:    3.2541133456

- q-position: [    0.1500000,    0.0750000,    0.2250000 ]
  distance:    0.0513892
  band:
  - # 1
    frequency:    0.7111600840
  - # 2
    frequency:    0.7860404554
  - # 3
    frequency:    1.4224067221
  - # 4
    frequency:    1.8039549930
  - # 5
    frequency:    2.0160639580
  - # 6
    frequency:    3.2489223172

- q-position: [    0.1550000,    0.0775000,    0.2325000 ]
  distance:    0.0531022
  band:
  - # 1
    frequency:    0.7221414620
  - # 2
    frequency:    0.8032811317
  - # 3
    frequency:    1.4602501823
  - # 4
    frequency:    1.8262189561
  - # 5
    frequency:    2.0493357478
  - # 6
    frequency:    3.2427490616

- q-position: [    0.1600000,    0.0800000,    0.2400000 ]
  distance:    0.0548152
  band:
  - # 1
    frequency:    0.7325766490
  - # 2
    frequency:    0.8202491743
  - # 3
    frequency:    1.4972106371
  - # 4
    frequency:    1.8466701977
  - # 5
    frequency:    2.0811263524
  - # 6
    frequency:    3.2355818015

- q-position: [    0.1650000,    0.0825000,    0.2475000 ]
  distance:    0.0565281
  band:
  - # 1
    frequency:    0.7425228343
  - # 2
    frequency:    0.8369912160
  - # 3
    frequency:    1.5332449532
  - # 4
    frequency:    1.8653362299
  - # 5
    frequency:    2.1114757272
  - # 6
    frequency:    3.2274160393

- q-position: [    0.1700000,    0.0850000,    0.2550000 ]
  distance:    0.0582411
  band:
  - # 1
    frequency:    0.7520393689
  - # 2
    frequency:    0.8535543856
  - # 3
    frequency:    1.5683059040
  - # 4
    frequency:    1.8822541157
  - # 5
    frequency:    2.1404317215
  - # 6
    frequency:    3.2182547932

- q-position: [    0.1750000,    0.0875000,    0.2625000 ]
  distance:    0.0599541
  band:
  - # 1
    frequency:    0.7611870272
  - # 2
    frequency:    0.8699854453
  - # 3
    frequency:    1.6023421991
  - # 4
    frequency:    1.8974699011
  - # 5
    frequency:    2.1680490449
  - # 6
    frequency:    3.2081088114

- q-position: [    0.1800000,    0.0900000,    0.2700000 ]
  distance:    0.0616671
  band:
  - # 1
    frequency:    0.7700272002
  - # 2
    frequency:    0.8863298724
  - # 3
    frequency:    1.6352986310
  - # 4
    frequency:    1.9110380403
  - # 5
    frequency:    2.1943881461
  - # 6
    frequency:    3.1969967635

- q-position: [    0.1850000,    0.0925000,    0.2775000 ]
  distance:    0.0633800
  band:
  - # 1
    frequency:    0.7786210345
  - # 2
    frequency:    0.9026309083
  - # 3
    frequency:    1.6671163575
  - # 4
    frequency:    1.9230208095
  - # 5
    frequency:    2.2195139920
  - # 6
    frequency:    3.1849454097

- q-position: [    0.1900000,    0.0950000,    0.2850000 ]
  distance:    0.0650930
  band:
  - # 1
    frequency:    0.7870285289
  - # 2
    frequency:    0.9189285927
  - # 3
    frequency:    1.6977333324
  - # 4
    frequency:    1.9334877020
  - # 5
    frequency:    2.2434947326
  - # 6
    frequency:    3.1719897436

- q-position: [    0.1950000,    0.0975000,    0.2925000 ]
  distance:    0.0668060
  band:
  - # 1
    frequency:    0.7953076077
  - # 2
    frequency:    0.9352588074
  - # 3
    frequency:    1.7270848967
  - # 4
    frequency:    1.9425148005
  - # 5
    frequency:    2.2664002501
  - # 6
    frequency:    3.1581731035

- q-position: [    0.2000000,    0.1000000,    0.3000000 ]
  distance:    0.0685190
  band:
  - # 1
    frequency:    0.8035131907
  - # 2
    frequency:    0.9516523497
  - # 3
    frequency:    1.7551045343
  - # 4
    frequency:    1.9501841233
  - # 5
    frequency:    2.2883005966
  - # 6
    frequency:    3.1435472464

- q-position: [    0.2050000,    0.1025000,    0.3075000 ]
  distance:    0.0702319
  band:
  - # 1
    frequency:    0.8116962814
  - # 2
    frequency:    0.9681340591
  - # 3
    frequency:    1.7817247882
  - # 4
    frequency:    1.9565829427
  - # 5
    frequency:    2.3092643406
  - # 6
    frequency:    3.1281723712

- q-position: [    0.2100000,    0.1050000,    0.3150000 ]
  distance:    0.0719449
  band:
  - # 1
    frequency:    0.8199030971
  - # 2
    frequency:    0.9847220157
  - # 3
    frequency:    1.8068783215
  - # 4
    frequency:    1.9618030713
  - # 5
    frequency:    2.3293568581
  - # 6
    frequency:    3.1121170785

- q-position: [    0.2150000,    0.1075000,    0.3225000 ]
  distance:    0.0736579
  band:
  - # 1
    frequency:    0.8281742663
  - # 2
    frequency:    1.0014268282
  - # 3
    frequency:    1.8304990946
  - # 4
    frequency:    1.9659401195
  - # 5
    frequency:    2.3486386248
  - # 6
    frequency:    3.0954582440

- q-position: [    0.2200000,    0.1100000,    0.3300000 ]
  distance:    0.0753708
  band:
  - # 1
    frequency:    0.8365441153
  - # 2
    frequency:    1.0182510262
  - # 3
    frequency:    1.8525236179
  - # 4
    frequency:    1.9690927213
  - # 5
    frequency:    2.3671635815
  - # 6
    frequency:    3.0782807810

- q-position: [    0.2250000,    0.1125000,    0.3375000 ]
  distance:    0.0770838
  band:
  - # 1
    frequency:    0.8450400674
  - # 2
    frequency:    1.0351885668
  - # 3
    frequency:    1.8728922316
  - # 4
    frequency:    1.9713617320
  - # 5
    frequency:    2.3849776634
  - # 6
    frequency:    3.0606772581

- q-position: [    0.2300000,    0.1150000,    0.3450000 ]
  distance:    0.0787968
  band:
  - # 1
    frequency:    0.8536821726
  - # 2
    frequency:    1.0522244602
  - # 3
    frequency:    1.8915503642
  - # 4
    frequency:    1.9728493995
  - # 5
    frequency:    2.4021175898
  - # 6
    frequency:    3.0427473326

- q-position: [    0.2350000,    0.1175000,    0.3525000 ]
  distance:    0.0805098
  band:
  - # 1
    frequency:    0.8624827839
  - # 2
    frequency:    1.0693345183
  - # 3
    frequency:    1.9084497293
  - # 4
    frequency:    1.9736585138
  - # 5
    frequency:    2.4186100073
  - # 6
    frequency:    3.0245969556

- q-position: [    0.2400000,    0.1200000,    0.3600000 ]
  distance:    0.0822227
  band:
  - # 1
    frequency:    0.8714463900
  - # 2
    frequency:    1.0864852204
  - # 3
    frequency:    1.9235494410
  - # 4
    frequency:    1.9738915395
  - # 5
    frequency:    2.4344710619
  - # 6
    frequency:    3.0063373000

- q-position: [    0.2450000,    0.1225000,    0.3675000 ]
  distance:    0.0839357
  band:
  - # 1
    frequency:    0.8805696090
  - # 2
    frequency:    1.1036336907
  - # 3
    frequency:    1.9368170590
  - # 4
    frequency:    1.9736497384
  - # 5
    frequency:    2.4497064445
  - # 6
    frequency:    2.9880833694

- q-position: [    0.2500000,    0.1250000,    0.3750000 ]
  distance:    0.0856487
  band:
  - # 1
    frequency:    0.8898413436
  - # 2
    frequency:    1.1207277785
  - # 3
    frequency:    1.9482296043
  - # 4
    frequency:    1.9730322892
  - # 5
    frequency:    2.4643119075
  - # 6
    frequency:    2.9699522509

- q-position: [    0.2550000,    0.1275000,    0.3825000 ]
  distance:    0.0873617
  band:
  - # 1
    frequency:    0.8992430922
  - # 2
    frequency:    1.1377062260
  - # 3
    frequency:    1.9577746144
  - # 4
    frequency:    1.9721354152
  - # 5
    frequency:    2.4782742022
  - # 6
    frequency:    2.9520610062

- q-position: [    0.2600000,    0.1300000,    0.3900000 ]
  distance:    0.0890746
  band:
  - # 1
    frequency:    0.9087494035
  - # 2
    frequency:    1.1544989155
  - # 3
    frequency:    1.9654513195
  - # 4
    frequency:    1.9710515289
  - # 5
    frequency:    2.4915723311
  - # 6
    frequency:    2.9345242241

- q-position: [    0.2650000,    0.1325000,    0.3975000 ]
  distance:    0.0907876
  band:
  - # 1
    frequency:    0.9183284621
  - # 2
    frequency:    1.1710271796
  - # 3
    frequency:    1.9698684068
  - # 4
    frequency:    1.9712720069
  - # 5
    frequency:    2.5041789651
  - # 6
    frequency:    2.9174513226

- q-position: [    0.2700000,    0.1350000,    0.4050000 ]
  distance:    0.0925006
  band:
  - # 1
    frequency:    0.9279427853
  - # 2
    frequency:    1.1872041713
  - # 3
    frequency:    1.9686684058
  - # 4
    frequency:    1.9752636050
  - # 5
    frequency:    2.5160618370
  - # 6
    frequency:    2.9009437520

- q-position: [    0.2750000,    0.1375000,    0.4125000 ]
  distance:    0.0942136
  band:
  - # 1
    frequency:    0.9375500109
  - # 2
    frequency:    1.2029352875
  - # 3
    frequency:    1.9675277359
  - # 4
    frequency:    1.9774694512
  - # 5
    frequency:    2.5271848973
  - # 6
    frequency:    2.8850923364

- q-position: [    0.2800000,    0.1400000,    0.4200000 ]
  distance:    0.0959265
  band:
  - # 1
    frequency:    0.9471037539
  - # 2
    frequency:    1.2181186560
  - # 3
    frequency:    1.9665158014
  - # 4
    frequency:    1.9779511319
  - # 5
    frequency:    2.5375090153
  - # 6
    frequency:    2.8699750630

- q-position: [    0.2850000,    0.1425000,    0.4275000 ]
  distance:    0.0976395
  band:
  - # 1
    frequency:    0.9565545102
  - # 2
    frequency:    1.2326457049
  - # 3
    frequency:    1.9656946266
  - # 4
    frequency:    1.9767902026
  - # 5
    frequency:    2.5469920164
  - # 6
    frequency:    2.8556556843

- q-position: [    0.2900000,    0.1450000,    0.4350000 ]
  distance:    0.0993525
  band:
  - # 1
    frequency:    0.9658505840
  - # 2
    frequency:    1.2464018522
  - # 3
    frequency:    1.9651183771
  - # 4
    frequency:    1.9740895366
  - # 5
    frequency:    2.5555878931
  - # 6
    frequency:    2.8421834955

- q-position: [    0.2950000,    0.1475000,    0.4425000 ]
  distance:    0.1010655
  band:
  - # 1
    frequency:    0.9749390188
  - # 2
    frequency:    1.2592673740
  - # 3
    frequency:    1.9648329896
  - # 4
    frequency:    1.9699740216
  - # 5
    frequency:    2.5632451086
  - # 6
    frequency:    2.8295945751

- q-position: [    0.3000000,    0.1500000,    0.4500000 ]
  distance:    0.1027784
  band:
  - # 1
    frequency:    0.9837665113
  - # 2
    frequency:    1.2711185353
  - # 3
    frequency:    1.9645903372
  - # 4
    frequency:    1.9648759208
  - # 5
    frequency:    2.5699040630
  - # 6
    frequency:    2.8179145888

- q-position: [    0.3050000,    0.1525000,    0.4575000 ]
  distance:    0.1044914
  band:
  - # 1
    frequency:    0.9922802926
  - # 2
    frequency:    1.2818290910
  - # 3
    frequency:    1.9581055932
  - # 4
    frequency:    1.9652760229
  - # 5
    frequency:    2.5754940249
  - # 6
    frequency:    2.8071629498

- q-position: [    0.3100000,    0.1550000,    0.4650000 ]
  distance:    0.1062044
  band:
  - # 1
    frequency:    1.0004289596
  - # 2
    frequency:    1.2912722850
  - # 3
    frequency:    1.9507046926
  - # 4
    frequency:    1.9660535519
  - # 5
    frequency:    2.5799301747
  - # 6
    frequency:    2.7973576859

- q-position: [    0.3150000,    0.1575000,    0.4725000 ]
  distance:    0.1079173
  band:
  - # 1
    frequency:    1.0081632462
  - # 2
    frequency:    1.2993234791
  - # 3
    frequency:    1.9425863699
  - # 4
    frequency:    1.9672203081
  - # 5
    frequency:    2.5831118396
  - # 6
    frequency:    2.7885198366

- q-position: [    0.3200000,    0.1600000,    0.4800000 ]
  distance:    0.1096303
  band:
  - # 1
    frequency:    1.0154367250
  - # 2
    frequency:    1.3058635223
  - # 3
    frequency:    1.9339579616
  - # 4
    frequency:    1.9687799103
  - # 5
    frequency:    2.5849234040
  - # 6
    frequency:    2.7806757157

- q-position: [    0.3250000,    0.1625000,    0.4875000 ]
  distance:    0.1113433
  band:
  - # 1
    frequency:    1.0222064334
  - # 2
    frequency:    1.3107829026
  - # 3
    frequency:    1.9250290715
  - # 4
    frequency:    1.9707281950
  - # 5
    frequency:    2.5852394784
  - # 6
    frequency:    2.7738552379

- q-position: [    0.3300000,    0.1650000,    0.4950000 ]
  distance:    0.1130563
  band:
  - # 1
    frequency:    1.0284334205
  - # 2
    frequency:    1.3139866101
  - # 3
    frequency:    1.9160044193
  - # 4
    frequency:    1.9730537316
  - # 5
    frequency:    2.5839352346
  - # 6
    frequency:    2.7680851750

- q-position: [    0.3350000,    0.1675000,    0.5025000 ]
  distance:    0.1147692
  band:
  - # 1
    frequency:    1.0340832166
  - # 2
    frequency:    1.3153994664
  - # 3
    frequency:    1.9070763023
  - # 4
    frequency:    1.9757384411
  - # 5
    frequency:    2.5809010497
  - # 6
    frequency:    2.7633779965

- q-position: [    0.3400000,    0.1700000,    0.5100000 ]
  distance:    0.1164822
  band:
  - # 1
    frequency:    1.0391262254
  - # 2
    frequency:    1.3149714814
  - # 3
    frequency:    1.8984172536
  - # 4
    frequency:    1.9787583009
  - # 5
    frequency:    2.5760581562
  - # 6
    frequency:    2.7597194474

- q-position: [    0.3450000,    0.1725000,    0.5175000 ]
  distance:    0.1181952
  band:
  - # 1
    frequency:    1.0435380451
  - # 2
    frequency:    1.3126826229
  - # 3
    frequency:    1.8901735963
  - # 4
    frequency:    1.9820841172
  - # 5
    frequency:    2.5693703880
  - # 6
    frequency:    2.7570596698

- q-position: [    0.3500000,    0.1750000,    0.5250000 ]
  distance:    0.1199082
  band:
  - # 1
    frequency:    1.0472997226
  - # 2
    frequency:    1.3085463052
  - # 3
    frequency:    1.8824606271
  - # 4
    frequency:    1.9856823444
  - # 5
    frequency:    2.5608480345
  - # 6
    frequency:    2.7553118086

- q-position: [    0.3550000,    0.1775000,    0.5325000 ]
  distance:    0.1216211
  band:
  - # 1
    frequency:    1.0503979482
  - # 2
    frequency:    1.3026109743
  - # 3
    frequency:    1.8753600485
  - # 4
    frequency:    1.9895159309
  - # 5
    frequency:    2.5505431924
  - # 6
    frequency:    2.7543587016

- q-position: [    0.3600000,    0.1800000,    0.5400000 ]
  distance:    0.1233341
  band:
  - # 1
    frequency:    1.0528251967
  - # 2
    frequency:    1.2949594107
  - # 3
    frequency:    1.8689199949
  - # 4
    frequency:    1.9935451704
  - # 5
    frequency:    2.5385395501
  - # 6
    frequency:    2.7540647389

- q-position: [    0.3650000,    0.1825000,    0.5475000 ]
  distance:    0.1250471
  band:
  - # 1
    frequency:    1.0545798208
  - # 2
    frequency:    1.2857057407
  - # 3
    frequency:    1.8631576151
  - # 4
    frequency:    1.9977285385
  - # 5
    frequency:    2.5249409211
  - # 6
    frequency:    2.7542886094

- q-position: [    0.3700000,    0.1850000,    0.5550000 ]
  distance:    0.1267601
  band:
  - # 1
    frequency:    1.0556661020
  - # 2
    frequency:    1.2749905330
  - # 3
    frequency:    1.8580637791
  - # 4
    frequency:    2.0020234987
  - # 5
    frequency:    2.5098618043
  - # 6
    frequency:    2.7548936997

- q-position: [    0.3750000,    0.1875000,    0.5625000 ]
  distance:    0.1284730
  band:
  - # 1
    frequency:    1.0560942609
  - # 2
    frequency:    1.2629746458
  - # 3
    frequency:    1.8536091855
  - # 4
    frequency:    2.0063872611
  - # 5
    frequency:    2.4934212708
  - # 6
    frequency:    2.7557548866

- q-position: [    0.3800000,    0.1900000,    0.5700000 ]
  distance:    0.1301860
  band:
  - # 1
    frequency:    1.0558804311
  - # 2
    frequency:    1.2498326112
  - # 3
    frequency:    1.8497510314
  - # 4
    frequency:    2.0107774815
  - # 5
    frequency:    2.4757399319
  - # 6
    frequency:    2.7567620061

- q-position: [    0.3850000,    0.1925000,    0.5775000 ]
  distance:    0.1318990
  band:
  - # 1
    frequency:    1.0550465939
  - # 2
    frequency:    1.2357462790
  - # 3
    frequency:    1.8464394743
  - # 4
    frequency:    2.0151528935
  - # 5
    frequency:    2.4569390800
  - # 6
    frequency:    2.7578209390

- q-position: [    0.3900000,    0.1950000,    0.5850000 ]
  distance:    0.1336120
  band:
  - # 1
    frequency:    1.0536204740
  - # 2
    frequency:    1.2208992532
  - # 3
    frequency:    1.8436233068
  - # 4
    frequency:    2.0194738635
  - # 5
    frequency:    2.4371410590
  - # 6
    frequency:    2.7588532824

- q-position: [    0.3950000,    0.1975000,    0.5925000 ]
  distance:    0.1353249
  band:
  - # 1
    frequency:    1.0516353920
  - # 2
    frequency:    1.2054724224
  - # 3
    frequency:    1.8412545075
  - # 4
    frequency:    2.0237028685
  - # 5
    frequency:    2.4164701624
  - # 6
    frequency:    2.7597953275

- q-position: [    0.4000000,    0.2000000,    0.6000000 ]
  distance:    0.1370379
  band:
  - # 1
    frequency:    1.0491300692
  - # 2
    frequency:    1.1896406618
  - # 3
    frequency:    1.8392915478
  - # 4
    frequency:    2.0278048923
  - # 5
    frequency:    2.3950536268
  - # 6
    frequency:    2.7605967943

- q-position: [    0.4050000,    0.2025000,    0.6075000 ]
  distance:    0.1387509
  band:
  - # 1
    frequency:    1.0461483806
  - # 2
    frequency:    1.1735706310
  - # 3
    frequency:    1.8377014981
  - # 4
    frequency:    2.0317477428
  - # 5
    frequency:    2.3730224973
  - # 6
    frequency:    2.7612195612

- q-position: [    0.4100000,    0.2050000,    0.6150000 ]
  distance:    0.1404638
  band:
  - # 1
    frequency:    1.0427390477
  - # 2
    frequency:    1.1574194947
  - # 3
    frequency:    1.8364610648
  - # 4
    frequency:    2.0355022905
  - # 5
    frequency:    2.3505122758
  - # 6
    frequency:    2.7616364952

- q-position: [    0.4150000,    0.2075000,    0.6225000 ]
  distance:    0.1421768
  band:
  - # 1
    frequency:    1.0389552685
  - # 2
    frequency:    1.1413343591
  - # 3
    frequency:    1.8355567219
  - # 4
    frequency:    2.0390426348
  - # 5
    frequency:    2.3276633435
  - # 6
    frequency:    2.7618304111

- q-position: [    0.4200000,    0.2100000,    0.6300000 ]
  distance:    0.1438898
  band:
  - # 1
    frequency:    1.0348542757
  - # 2
    frequency:    1.1254522205
  - # 3
    frequency:    1.8349840927
  - # 4
    frequency:    2.0423461994
  - # 5
    frequency:    2.3046211920
  - # 6
    frequency:    2.7617931555

- q-position: [    0.4250000,    0.2125000,    0.6375000 ]
  distance:    0.1456028
  band:
  - # 1
    frequency:    1.0304968211
  - # 2
    frequency:    1.1099002460
  - # 3
    frequency:    1.8347466998
  - # 4
    frequency:    2.0453937654
  - # 5
    frequency:    2.2815365249
  - # 6
    frequency:    2.7615247933

- q-position: [    0.4300000,    0.2150000,    0.6450000 ]
  distance:    0.1473157
  band:
  - # 1
    frequency:    1.0259465814
  - # 2
    frequency:    1.0947962409
  - # 3
    frequency:    1.8348541573
  - # 4
    frequency:    2.0481694452
  - # 5
    frequency:    2.2585653132
  - # 6
    frequency:    2.7610328715

- q-position: [    0.4350000,    0.2175000,    0.6525000 ]
  distance:    0.1490287
  band:
  - # 1
    frequency:    1.0212694844
  - # 2
    frequency:    1.0802491909
  - # 3
    frequency:    1.8353198259
  - # 4
    frequency:    2.0506606055
  - # 5
    frequency:    2.2358689082
  - # 6
    frequency:    2.7603317385

- q-position: [    0.4400000,    0.2200000,    0.6600000 ]
  distance:    0.1507417
  band:
  - # 1
    frequency:    1.0165329564
  - # 2
    frequency:    1.0663597997
  - # 3
    frequency:    1.8361579000
  - # 4
    frequency:    2.0528577449
  - # 5
    frequency:    2.2136143416
  - # 6
    frequency:    2.7594418978

- q-position: [    0.4450000,    0.2225000,    0.6675000 ]
  distance:    0.1524547
  band:
  - # 1
    frequency:    1.0118050952
  - # 2
    frequency:    1.0532209669
  - # 3
    frequency:    1.8373798491
  - # 4
    frequency:    2.0547543317
  - # 5
    frequency:    2.1919749729
  - # 6
    frequency:    2.7583893829

- q-position: [    0.4500000,    0.2250000,    0.6750000 ]
  distance:    0.1541676
  band:
  - # 1
    frequency:    1.0071537759
  - # 2
    frequency:    1.0409181742
  - # 3
    frequency:    1.8389900896
  - # 4
    frequency:    2.0563466105
  - # 5
    frequency:    2.1711316723
  - # 6
    frequency:    2.7572051403

- q-position: [    0.4550000,    0.2275000,    0.6825000 ]
  distance:    0.1558806
  band:
  - # 1
    frequency:    1.0026457003
  - # 2
    frequency:    1.0295297659
  - # 3