14.400
  28.16541  -0.00000   0.00000  -0.00000  28.16541   0.00000   0.00000  -0.00000  28.16541
   5.79203   0.00000   0.00000   0.00000   5.79203   0.00000   0.00000   0.00000   5.79203
  -5.79127   0.00000   0.00000   0.00000  -5.79127   0.00000   0.00000   0.00000  -5.79127
