128  
2    

1    
  0.0000000000000000   0.0070710678118655   0.0070710678118655
  -0.0000000000   -0.0159753900   -0.0159753900
  -0.0000000000    0.0026830400    0.0026830400
  -0.0000000000    0.0005768700    0.0005768700
  -0.0000000000    0.0026585800    0.0026585800
   0.0026500100   -0.0001921000    0.0000248100
   0.0001677700    0.0001291100    0.0002966600
  -0.0001678800    0.0002950200    0.0001300300
  -0.0026387400    0.0000279000   -0.0001904900
   0.0003891100   -0.0000558900    0.0001876800
  -0.0000008300   -0.0000384600   -0.0000380400
  -0.0003891100    0.0001876800   -0.0000558900
   0.0000008300   -0.0000380400   -0.0000384600
   0.0026387400   -0.0001904900    0.0000279000
  -0.0026500100    0.0000248100   -0.0001921000
  -0.0001677700    0.0002966600    0.0001291100
   0.0001678800    0.0001300300    0.0002950200
   0.0026500100    0.0000248100   -0.0001921000
   0.0001677700    0.0002966600    0.0001291100
  -0.0001678800    0.0001300300    0.0002950200
  -0.0026387400   -0.0001904900    0.0000279000
   0.0002352000    0.0000630000    0.0000630000
  -0.0000000500    0.0000808600    0.0000808600
  -0.0002332800    0.0000635400    0.0000635400
  -0.0000095700    0.0002872100    0.0002872100
   0.0000657600   -0.0001048700    0.0000609300
  -0.0000668500    0.0000622600   -0.0001041900
  -0.0003662600    0.0002746100   -0.0000435400
   0.0003686400   -0.0000437600    0.0002730000
  -0.0000000000   -0.0026156800   -0.0026204100
  -0.0000000000    0.0041790100    0.0002906600
  -0.0000000000    0.0006423500    0.0006401200
  -0.0000000000    0.0002837900    0.0041871200
   0.0003891100    0.0001876800   -0.0000558900
  -0.0000008300   -0.0000380400   -0.0000384600
  -0.0003891100   -0.0000558900    0.0001876800
   0.0000008300   -0.0000384600   -0.0000380400
   0.0000657600    0.0000609300   -0.0001048700
  -0.0000668500   -0.0001041900    0.0000622600
  -0.0003662600   -0.0000435400    0.0002746100
   0.0003686400    0.0002730000   -0.0000437600
  -0.0000000000   -0.0002014800   -0.0002014800
  -0.0000000000   -0.0000916100   -0.0000916100
  -0.0000000000    0.0010829500    0.0010829500
  -0.0000000000   -0.0000956500   -0.0000956500
   0.0000668500    0.0000622600   -0.0001041900
   0.0003662600    0.0002746100   -0.0000435400
  -0.0003686400   -0.0000437600    0.0002730000
  -0.0000657600   -0.0001048700    0.0000609300
   0.0026387400    0.0000279000   -0.0001904900
  -0.0026500100   -0.0001921000    0.0000248100
  -0.0001677700    0.0001291100    0.0002966600
   0.0001678800    0.0002950200    0.0001300300
  -0.0000000000   -0.0026204100   -0.0026156800
  -0.0000000000    0.0002906600    0.0041790100
  -0.0000000000    0.0006401200    0.0006423500
  -0.0000000000    0.0041871200    0.0002837900
   0.0000668500   -0.0001041900    0.0000622600
   0.0003662600   -0.0000435400    0.0002746100
  -0.0003686400    0.0002730000   -0.0000437600
  -0.0000657600    0.0000609300   -0.0001048700
   0.0002332800    0.0000635400    0.0000635400
   0.0000095700    0.0002872100    0.0002872100
  -0.0002352000    0.0000630000    0.0000630000
   0.0000000500    0.0000808600    0.0000808600
  -0.0004066900   -0.0002086000   -0.0002086000
  -0.0000000900   -0.0001747000   -0.0001747000
   0.0004035500   -0.0002071800   -0.0002071800
  -0.0000102500    0.0007937500    0.0007937500
  -0.0000842000   -0.0000154500   -0.0000904700
   0.0000842400   -0.0000905100   -0.0000158800
   0.0006507100   -0.0000971800    0.0000174600
  -0.0006546500    0.0000174200   -0.0000956400
   0.0000012500    0.0001967700    0.0001977500
   0.0004511600   -0.0003346100    0.0000174300
  -0.0000005600   -0.0001484500   -0.0001474900
  -0.0004530100    0.0000174200   -0.0003365800
  -0.0000000000    0.0041685700    0.0007909700
  -0.0000000000   -0.0009898100   -0.0005479300
  -0.0000000000   -0.0005490800   -0.0009866600
  -0.0000000000    0.0007960400    0.0038865200
  -0.0000842000   -0.0000904700   -0.0000154500
   0.0000842400   -0.0000158800   -0.0000905100
   0.0006507100    0.0000174600   -0.0000971800
  -0.0006546500   -0.0000956400    0.0000174200
   0.0000000500   -0.0000062600   -0.0000062600
   0.0000935700   -0.0000545800   -0.0000545800
   0.0000028400   -0.0003025600   -0.0003025600
  -0.0000945200   -0.0000532700   -0.0000532700
  -0.0000000000    0.0003146300    0.0003547900
  -0.0000000000   -0.0017893400   -0.0003029400
  -0.0000000000   -0.0003021200   -0.0017918100
  -0.0000000000    0.0003565300    0.0003196000
  -0.0004511600   -0.0003346100    0.0000174300
   0.0000005600   -0.0001484500   -0.0001474900
   0.0004530100    0.0000174200   -0.0003365800
  -0.0000012500    0.0001967700    0.0001977500
   0.0000012500    0.0001977500    0.0001967700
   0.0004511600    0.0000174300   -0.0003346100
  -0.0000005600   -0.0001474900   -0.0001484500
  -0.0004530100   -0.0003365800    0.0000174200
  -0.0000000000    0.0003547900    0.0003146300
  -0.0000000000   -0.0003029400   -0.0017893400
  -0.0000000000   -0.0017918100   -0.0003021200
  -0.0000000000    0.0003196000    0.0003565300
  -0.0000935700   -0.0000545800   -0.0000545800
  -0.0000028400   -0.0003025600   -0.0003025600
   0.0000945200   -0.0000532700   -0.0000532700
  -0.0000000500   -0.0000062600   -0.0000062600
  -0.0006507100   -0.0000971800    0.0000174600
   0.0006546500    0.0000174200   -0.0000956400
   0.0000842000   -0.0000154500   -0.0000904700
  -0.0000842400   -0.0000905100   -0.0000158800
  -0.0000000000    0.0007909700    0.0041685700
  -0.0000000000   -0.0005479300   -0.0009898100
  -0.0000000000   -0.0009866600   -0.0005490800
  -0.0000000000    0.0038865200    0.0007960400
  -0.0004511600    0.0000174300   -0.0003346100
   0.0000005600   -0.0001474900   -0.0001484500
   0.0004530100   -0.0003365800    0.0000174200
  -0.0000012500    0.0001977500    0.0001967700
  -0.0006507100    0.0000174600   -0.0000971800
   0.0006546500   -0.0000956400    0.0000174200
   0.0000842000   -0.0000904700   -0.0000154500
  -0.0000842400   -0.0000158800   -0.0000905100
   0.0000102500    0.0007937500    0.0007937500
   0.0004066900   -0.0002086000   -0.0002086000
   0.0000000900   -0.0001747000   -0.0001747000
  -0.0004035500   -0.0002071800   -0.0002071800

65   
  0.0000000000000000   0.0070710678118655   0.0070710678118655
  -0.0004052500   -0.0002092900   -0.0002092900
   0.0000006300    0.0007930900    0.0007930900
   0.0004071600   -0.0002077700   -0.0002077700
   0.0000005900   -0.0001755000   -0.0001755000
   0.0000000000    0.0038896400    0.0008041800
   0.0000000000    0.0007813400    0.0041663100
   0.0000000000   -0.0007497200   -0.0007896500
   0.0000000000   -0.0007857900   -0.0007489900
   0.0000007300    0.0001966900    0.0001986200
  -0.0006535400    0.0000166500   -0.0003347600
  -0.0000010400   -0.0001469400   -0.0001478400
   0.0006521700   -0.0003361700    0.0000167800
  -0.0000839800   -0.0000156700   -0.0000912000
  -0.0004520900    0.0000169300   -0.0000981400
   0.0004523600   -0.0000948200    0.0000164700
   0.0000843600   -0.0000914200   -0.0000152700
   0.0000000000    0.0008041800    0.0038896400
   0.0000000000    0.0041663100    0.0007813400
   0.0000000000   -0.0007896500   -0.0007497200
   0.0000000000   -0.0007489900   -0.0007857900
  -0.0000006300    0.0007930900    0.0007930900
  -0.0004071600   -0.0002077700   -0.0002077700
  -0.0000005900   -0.0001755000   -0.0001755000
   0.0004052500   -0.0002092900   -0.0002092900
  -0.0004523600    0.0000164700   -0.0000948200
  -0.0000843600   -0.0000152700   -0.0000914200
   0.0000839800   -0.0000912000   -0.0000156700
   0.0004520900   -0.0000981400    0.0000169300
  -0.0006521700    0.0000167800   -0.0003361700
  -0.0000007300    0.0001986200    0.0001966900
   0.0006535400   -0.0003347600    0.0000166500
   0.0000010400   -0.0001478400   -0.0001469400
   0.0000007300    0.0001986200    0.0001966900
  -0.0006535400   -0.0003347600    0.0000166500
  -0.0000010400   -0.0001478400   -0.0001469400
   0.0006521700    0.0000167800   -0.0003361700
  -0.0004523600   -0.0000948200    0.0000164700
  -0.0000843600   -0.0000914200   -0.0000152700
   0.0000839800   -0.0000156700   -0.0000912000
   0.0004520900    0.0000169300   -0.0000981400
  -0.0000931700   -0.0000538400   -0.0000538400
   0.0000001100   -0.0000071500   -0.0000071500
   0.0000939500   -0.0000538200   -0.0000538200
   0.0000048600   -0.0003031800   -0.0003031800
   0.0000000000    0.0005551600    0.0001155800
   0.0000000000    0.0001179400    0.0005575600
   0.0000000000   -0.0017944300   -0.0003023300
   0.0000000000   -0.0003040400   -0.0017870600
  -0.0000839800   -0.0000912000   -0.0000156700
  -0.0004520900   -0.0000981400    0.0000169300
   0.0004523600    0.0000164700   -0.0000948200
   0.0000843600   -0.0000152700   -0.0000914200
  -0.0006521700   -0.0003361700    0.0000167800
  -0.0000007300    0.0001966900    0.0001986200
   0.0006535400    0.0000166500   -0.0003347600
   0.0000010400   -0.0001469400   -0.0001478400
   0.0000000000    0.0001155800    0.0005551600
   0.0000000000    0.0005575600    0.0001179400
   0.0000000000   -0.0003023300   -0.0017944300
   0.0000000000   -0.0017870600   -0.0003040400
  -0.0000001100   -0.0000071500   -0.0000071500
  -0.0000939500   -0.0000538200   -0.0000538200
  -0.0000048600   -0.0003031800   -0.0003031800
   0.0000931700   -0.0000538400   -0.0000538400
   0.0000000000   -0.0211977500   -0.0211977500
   0.0000000000    0.0012519400    0.0012519400
   0.0000000000    0.0003198500    0.0003198500
   0.0000000000    0.0012272100    0.0012272100
   0.0009559400   -0.0000554500    0.0002856100
   0.0001270200    0.0001299400    0.0002141200
  -0.0001259200    0.0002138800    0.0001303100
  -0.0009520500    0.0002843200   -0.0000547300
   0.0002436600    0.0000074200    0.0000757300
   0.0000003600    0.0000033100    0.0000040000
  -0.0002436600    0.0000757300    0.0000074200
  -0.0000003600    0.0000040000    0.0000033100
   0.0009520500   -0.0000547300    0.0002843200
  -0.0009559400    0.0002856100   -0.0000554500
  -0.0001270200    0.0002141200    0.0001299400
   0.0001259200    0.0001303100    0.0002138800
   0.0009559400    0.0002856100   -0.0000554500
   0.0001270200    0.0002141200    0.0001299400
  -0.0001259200    0.0001303100    0.0002138800
  -0.0009520500   -0.0000547300    0.0002843200
   0.0001665800    0.0000905000    0.0000905000
   0.0000001100    0.0000795900    0.0000795900
  -0.0001658000    0.0000903900    0.0000903900
  -0.0000136900    0.0002257800    0.0002257800
   0.0000396100   -0.0000361100    0.0000482900
  -0.0000397400    0.0000473800   -0.0000359300
  -0.0003270800    0.0004983200    0.0001957500
   0.0003259300    0.0001968500    0.0004974600
   0.0000000000   -0.0006711500   -0.0006669800
   0.0000000000    0.0043377400    0.0002278800
   0.0000000000    0.0008259400    0.0008229000
   0.0000000000    0.0002237600    0.0043220400
   0.0002436600    0.0000757300    0.0000074200
   0.0000003600    0.0000040000    0.0000033100
  -0.0002436600    0.0000074200    0.0000757300
  -0.0000003600    0.0000033100    0.0000040000
   0.0000396100    0.0000482900   -0.0000361100
  -0.0000397400   -0.0000359300    0.0000473800
  -0.0003270800    0.0001957500    0.0004983200
   0.0003259300    0.0004974600    0.0001968500
   0.0000000000   -0.0001679700   -0.0001679700
   0.0000000000    0.0001704900    0.0001704900
   0.0000000000    0.0010576900    0.0010576900
   0.0000000000    0.0001723100    0.0001723100
   0.0000397400    0.0000473800   -0.0000359300
   0.0003270800    0.0004983200    0.0001957500
  -0.0003259300    0.0001968500    0.0004974600
  -0.0000396100   -0.0000361100    0.0000482900
   0.0009520500    0.0002843200   -0.0000547300
  -0.0009559400   -0.0000554500    0.0002856100
  -0.0001270200    0.0001299400    0.0002141200
   0.0001259200    0.0002138800    0.0001303100
   0.0000000000   -0.0006669800   -0.0006711500
   0.0000000000    0.0002278800    0.0043377400
   0.0000000000    0.0008229000    0.0008259400
   0.0000000000    0.0043220400    0.0002237600
   0.0000397400   -0.0000359300    0.0000473800
   0.0003270800    0.0001957500    0.0004983200
  -0.0003259300    0.0004974600    0.0001968500
  -0.0000396100    0.0000482900   -0.0000361100
   0.0001658000    0.0000903900    0.0000903900
   0.0000136900    0.0002257800    0.0002257800
  -0.0001665800    0.0000905000    0.0000905000
  -0.0000001100    0.0000795900    0.0000795900
