mesh: [    48,    48,    48 ]
nqpoint: 2769   
natom:   2      
phonon:
- q-position: [    0.0000000,    0.0000000,    0.0000000 ]
  weight: 1    
  band:
  - # 1
    frequency:     0.0018824826
  - # 2
    frequency:     0.0018824826
  - # 3
    frequency:     0.0018824826
  - # 4
    frequency:     0.8038016041
  - # 5
    frequency:     0.8038016041
  - # 6
    frequency:     0.8038016041

- q-position: [    0.0208333,    0.0000000,    0.0000000 ]
  weight: 8    
  band:
  - # 1
    frequency:     0.1179247208
  - # 2
    frequency:     0.1179247208
  - # 3
    frequency:     0.1657034176
  - # 4
    frequency:     0.8395468885
  - # 5
    frequency:     0.8395468885
  - # 6
    frequency:     3.2015346890

- q-position: [    0.0416667,    0.0000000,    0.0000000 ]
  weight: 8    
  band:
  - # 1
    frequency:     0.2287267326
  - # 2
    frequency:     0.2287267326
  - # 3
    frequency:     0.3295685733
  - # 4
    frequency:     0.9387894139
  - # 5
    frequency:     0.9387894139
  - # 6
    frequency:     3.2057250438

- q-position: [    0.0625000,    0.0000000,    0.0000000 ]
  weight: 8    
  band:
  - # 1
    frequency:     0.3310320149
  - # 2
    frequency:     0.3310320149
  - # 3
    frequency:     0.4899045912
  - # 4
    frequency:     1.0827204146
  - # 5
    frequency:     1.0827204146
  - # 6
    frequency:     3.2128773848

- q-position: [    0.0833333,    0.0000000,    0.0000000 ]
  weight: 8    
  band:
  - # 1
    frequency:     0.4270329158
  - # 2
    frequency:     0.4270329158
  - # 3
    frequency:     0.6451339169
  - # 4
    frequency:     1.2517206225
  - # 5
    frequency:     1.2517206225
  - # 6
    frequency:     3.2231728343

- q-position: [    0.1041667,    0.0000000,    0.0000000 ]
  weight: 8    
  band:
  - # 1
    frequency:     0.5188296472
  - # 2
    frequency:     0.5188296472
  - # 3
    frequency:     0.7939120920
  - # 4
    frequency:     1.4309543472
  - # 5
    frequency:     1.4309543472
  - # 6
    frequency:     3.2367348434

- q-position: [    0.1250000,    0.0000000,    0.0000000 ]
  weight: 8    
  band:
  - # 1
    frequency:     0.6074628892
  - # 2
    frequency:     0.6074628892
  - # 3
    frequency:     0.9351903170
  - # 4
    frequency:     1.6105175948
  - # 5
    frequency:     1.6105175948
  - # 6
    frequency:     3.2535273812

- q-position: [    0.1458333,    0.0000000,    0.0000000 ]
  weight: 8    
  band:
  - # 1
    frequency:     0.6932617533
  - # 2
    frequency:     0.6932617533
  - # 3
    frequency:     1.0682707165
  - # 4
    frequency:     1.7839160147
  - # 5
    frequency:     1.7839160147
  - # 6
    frequency:     3.2732597436

- q-position: [    0.1666667,    0.0000000,    0.0000000 ]
  weight: 8    
  band:
  - # 1
    frequency:     0.7762406400
  - # 2
    frequency:     0.7762406400
  - # 3
    frequency:     1.1928481837
  - # 4
    frequency:     1.9468123752
  - # 5
    frequency:     1.9468123752
  - # 6
    frequency:     3.2953163469

- q-position: [    0.1875000,    0.0000000,    0.0000000 ]
  weight: 8    
  band:
  - # 1
    frequency:     0.8563166415
  - # 2
    frequency:     0.8563166415
  - # 3
    frequency:     1.3090349450
  - # 4
    frequency:     2.0962792592
  - # 5
    frequency:     2.0962792592
  - # 6
    frequency:     3.3187253324

- q-position: [    0.2083333,    0.0000000,    0.0000000 ]
  weight: 8    
  band:
  - # 1
    frequency:     0.9334034839
  - # 2
    frequency:     0.9334034839
  - # 3
    frequency:     1.4173641971
  - # 4
    frequency:     2.2303873232
  - # 5
    frequency:     2.2303873232
  - # 6
    frequency:     3.3421724359

- q-position: [    0.2291667,    0.0000000,    0.0000000 ]
  weight: 8    
  band:
  - # 1
    frequency:     1.0074418261
  - # 2
    frequency:     1.0074418261
  - # 3
    frequency:     1.5187689165
  - # 4
    frequency:     2.3479774340
  - # 5
    frequency:     2.3479774340
  - # 6
    frequency:     3.3640584465

- q-position: [    0.2500000,    0.0000000,    0.0000000 ]
  weight: 8    
  band:
  - # 1
    frequency:     1.0783978362
  - # 2
    frequency:     1.0783978362
  - # 3
    frequency:     1.6145314481
  - # 4
    frequency:     2.4485280563
  - # 5
    frequency:     2.4485280563
  - # 6
    frequency:     3.3825920033

- q-position: [    0.2708333,    0.0000000,    0.0000000 ]
  weight: 8    
  band:
  - # 1
    frequency:     1.1462448245
  - # 2
    frequency:     1.1462448245
  - # 3
    frequency:     1.7061995355
  - # 4
    frequency:     2.5320709082
  - # 5
    frequency:     2.5320709082
  - # 6
    frequency:     3.3959059510

- q-position: [    0.2916667,    0.0000000,    0.0000000 ]
  weight: 8    
  band:
  - # 1
    frequency:     1.2109347229
  - # 2
    frequency:     1.2109347229
  - # 3
    frequency:     1.7954662669
  - # 4
    frequency:     2.5991304403
  - # 5
    frequency:     2.5991304403
  - # 6
    frequency:     3.4021851751

- q-position: [    0.3125000,    0.0000000,    0.0000000 ]
  weight: 8    
  band:
  - # 1
    frequency:     1.2723629162
  - # 2
    frequency:     1.2723629162
  - # 3
    frequency:     1.8840157349
  - # 4
    frequency:     2.6506742801
  - # 5
    frequency:     2.6506742801
  - # 6
    frequency:     3.3997959895

- q-position: [    0.3333333,    0.0000000,    0.0000000 ]
  weight: 8    
  band:
  - # 1
    frequency:     1.3303289859
  - # 2
    frequency:     1.3303289859
  - # 3
    frequency:     1.9733422551
  - # 4
    frequency:     2.6880674970
  - # 5
    frequency:     2.6880674970
  - # 6
    frequency:     3.3874109429

- q-position: [    0.3541667,    0.0000000,    0.0000000 ]
  weight: 8    
  band:
  - # 1
    frequency:     1.3844964438
  - # 2
    frequency:     1.3844964438
  - # 3
    frequency:     2.0645557518
  - # 4
    frequency:     2.7130258536
  - # 5
    frequency:     2.7130258536
  - # 6
    frequency:     3.3641283050

- q-position: [    0.3750000,    0.0000000,    0.0000000 ]
  weight: 8    
  band:
  - # 1
    frequency:     1.4343563995
  - # 2
    frequency:     1.4343563995
  - # 3
    frequency:     2.1581840102
  - # 4
    frequency:     2.7275631309
  - # 5
    frequency:     2.7275631309
  - # 6
    frequency:     3.3295942468

- q-position: [    0.3958333,    0.0000000,    0.0000000 ]
  weight: 8    
  band:
  - # 1
    frequency:     1.4792034445
  - # 2
    frequency:     1.4792034445
  - # 3
    frequency:     2.2539654355
  - # 4
    frequency:     2.7339255164
  - # 5
    frequency:     2.7339255164
  - # 6
    frequency:     3.2841535319

- q-position: [    0.4166667,    0.0000000,    0.0000000 ]
  weight: 8    
  band:
  - # 1
    frequency:     1.5181365637
  - # 2
    frequency:     1.5181365637
  - # 3
    frequency:     2.3505765797
  - # 4
    frequency:     2.7345024609
  - # 5
    frequency:     2.7345024609
  - # 6
    frequency:     3.2290980977

- q-position: [    0.4375000,    0.0000000,    0.0000000 ]
  weight: 8    
  band:
  - # 1
    frequency:     1.5501017540
  - # 2
    frequency:     1.5501017540
  - # 3
    frequency:     2.4451097371
  - # 4
    frequency:     2.7317002774
  - # 5
    frequency:     2.7317002774
  - # 6
    frequency:     3.1672017990

- q-position: [    0.4583333,    0.0000000,    0.0000000 ]
  weight: 8    
  band:
  - # 1
    frequency:     1.5739915649
  - # 2
    frequency:     1.5739915649
  - # 3
    frequency:     2.5317822269
  - # 4
    frequency:     2.7277667504
  - # 5
    frequency:     2.7277667504
  - # 6
    frequency:     3.1040528593

- q-position: [    0.4791667,    0.0000000,    0.0000000 ]
  weight: 8    
  band:
  - # 1
    frequency:     1.5888029893
  - # 2
    frequency:     1.5888029893
  - # 3
    frequency:     2.5988454711
  - # 4
    frequency:     2.7245690476
  - # 5
    frequency:     2.7245690476
  - # 6
    frequency:     3.0512018505

- q-position: [    0.5000000,    0.0000000,    0.0000000 ]
  weight: 4    
  band:
  - # 1
    frequency:     1.5938260285
  - # 2
    frequency:     1.5938260285
  - # 3
    frequency:     2.6258235760
  - # 4
    frequency:     2.7233561932
  - # 5
    frequency:     2.7233561932
  - # 6
    frequency:     3.0289789552

- q-position: [    0.0208333,    0.0208333,    0.0000000 ]
  weight: 6    
  band:
  - # 1
    frequency:     0.1284353369
  - # 2
    frequency:     0.1284353369
  - # 3
    frequency:     0.2014103606
  - # 4
    frequency:     0.8440301243
  - # 5
    frequency:     0.8440301243
  - # 6
    frequency:     3.2054348504

- q-position: [    0.0416667,    0.0208333,    0.0000000 ]
  weight: 24   
  band:
  - # 1
    frequency:     0.2114773084
  - # 2
    frequency:     0.2149928280
  - # 3
    frequency:     0.3251781372
  - # 4
    frequency:     0.9143679070
  - # 5
    frequency:     0.9216735779
  - # 6
    frequency:     3.2099249105

- q-position: [    0.0625000,    0.0208333,    0.0000000 ]
  weight: 24   
  band:
  - # 1
    frequency:     0.3061388152
  - # 2
    frequency:     0.3124839234
  - # 3
    frequency:     0.4692812664
  - # 4
    frequency:     1.0361151750
  - # 5
    frequency:     1.0545519238
  - # 6
    frequency:     3.2156165050

- q-position: [    0.0833333,    0.0208333,    0.0000000 ]
  weight: 24   
  band:
  - # 1
    frequency:     0.3985913355
  - # 2
    frequency:     0.4071162875
  - # 3
    frequency:     0.6172168834
  - # 4
    frequency:     1.1902927447
  - # 5
    frequency:     1.2179599206
  - # 6
    frequency:     3.2239640073

- q-position: [    0.1041667,    0.0208333,    0.0000000 ]
  weight: 24   
  band:
  - # 1
    frequency:     0.4874970157
  - # 2
    frequency:     0.4989449001
  - # 3
    frequency:     0.7628386672
  - # 4
    frequency:     1.3605861459
  - # 5
    frequency:     1.3952325738
  - # 6
    frequency:     3.2353355299

- q-position: [    0.1250000,    0.0208333,    0.0000000 ]
  weight: 24   
  band:
  - # 1
    frequency:     0.5732276195
  - # 2
    frequency:     0.5886260677
  - # 3
    frequency:     0.9031835078
  - # 4
    frequency:     1.5354076612
  - # 5
    frequency:     1.5753305964
  - # 6
    frequency:     3.2498290601

- q-position: [    0.1458333,    0.0208333,    0.0000000 ]
  weight: 24   
  band:
  - # 1
    frequency:     0.6560583099
  - # 2
    frequency:     0.6762782355
  - # 3
    frequency:     1.0366315920
  - # 4
    frequency:     1.7070201531
  - # 5
    frequency:     1.7510180119
  - # 6
    frequency:     3.2672999482

- q-position: [    0.1666667,    0.0208333,    0.0000000 ]
  weight: 24   
  band:
  - # 1
    frequency:     0.7360728034
  - # 2
    frequency:     0.7617126626
  - # 3
    frequency:     1.1623426653
  - # 4
    frequency:     1.8702654308
  - # 5
    frequency:     1.9174496199
  - # 6
    frequency:     3.2872991515

- q-position: [    0.1875000,    0.0208333,    0.0000000 ]
  weight: 24   
  band:
  - # 1
    frequency:     0.8132821068
  - # 2
    frequency:     0.8446442874
  - # 3
    frequency:     1.2800622272
  - # 4
    frequency:     2.0216754669
  - # 5
    frequency:     2.0713171335
  - # 6
    frequency:     3.3090294839

- q-position: [    0.2083333,    0.0208333,    0.0000000 ]
  weight: 24   
  band:
  - # 1
    frequency:     0.8877029460
  - # 2
    frequency:     0.9247921109
  - # 3
    frequency:     1.3900391329
  - # 4
    frequency:     2.1589494363
  - # 5
    frequency:     2.2103776752
  - # 6
    frequency:     3.3313424434

- q-position: [    0.2291667,    0.0208333,    0.0000000 ]
  weight: 24   
  band:
  - # 1
    frequency:     0.9593866294
  - # 2
    frequency:     1.0019149932
  - # 3
    frequency:     1.4929697461
  - # 4
    frequency:     2.2806564336
  - # 5
    frequency:     2.3331958548
  - # 6
    frequency:     3.3527791221

- q-position: [    0.2500000,    0.0208333,    0.0000000 ]
  weight: 24   
  band:
  - # 1
    frequency:     1.0284167813
  - # 2
    frequency:     1.0758153103
  - # 3
    frequency:     1.5899358480
  - # 4
    frequency:     2.3860617460
  - # 5
    frequency:     2.4389982323
  - # 6
    frequency:     3.3716494199

- q-position: [    0.2708333,    0.0208333,    0.0000000 ]
  weight: 24   
  band:
  - # 1
    frequency:     1.0948888456
  - # 2
    frequency:     1.1463254601
  - # 3
    frequency:     1.6823211453
  - # 4
    frequency:     2.4750179428
  - # 5
    frequency:     2.5275858859
  - # 6
    frequency:     3.3861388669

- q-position: [    0.2916667,    0.0208333,    0.0000000 ]
  weight: 24   
  band:
  - # 1
    frequency:     1.1588784071
  - # 2
    frequency:     1.2132831583
  - # 3
    frequency:     1.7716990048
  - # 4
    frequency:     2.5478890757
  - # 5
    frequency:     2.5992763392
  - # 6
    frequency:     3.3944311961

- q-position: [    0.3125000,    0.0208333,    0.0000000 ]
  weight: 24   
  band:
  - # 1
    frequency:     1.2204023449
  - # 2
    frequency:     1.2764979328
  - # 3
    frequency:     1.8596897661
  - # 4
    frequency:     2.6054910984
  - # 5
    frequency:     2.6548592744
  - # 6
    frequency:     3.3948364388

- q-position: [    0.3333333,    0.0208333,    0.0000000 ]
  weight: 24   
  band:
  - # 1
    frequency:     1.2793757175
  - # 2
    frequency:     1.3357109998
  - # 3
    frequency:     1.9477915350
  - # 4
    frequency:     2.6490393639
  - # 5
    frequency:     2.6955574198
  - # 6
    frequency:     3.3859175050

- q-position: [    0.3541667,    0.0208333,    0.0000000 ]
  weight: 24   
  band:
  - # 1
    frequency:     1.3355674091
  - # 2
    frequency:     1.3905525429
  - # 3
    frequency:     2.0371924621
  - # 4
    frequency:     2.6800977653
  - # 5
    frequency:     2.7229878744
  - # 6
    frequency:     3.3666124947

- q-position: [    0.3750000,    0.0208333,    0.0000000 ]
  weight: 24   
  band:
  - # 1
    frequency:     1.3885587698
  - # 2
    frequency:     1.4405032262
  - # 3
    frequency:     2.1285715345
  - # 4
    frequency:     2.7005251841
  - # 5
    frequency:     2.7391212662
  - # 6
    frequency:     3.3363565882

- q-position: [    0.3958333,    0.0208333,    0.0000000 ]
  weight: 24   
  band:
  - # 1
    frequency:     1.4377119200
  - # 2
    frequency:     1.4848695698
  - # 3
    frequency:     2.2218820134
  - # 4
    frequency:     2.7124139163
  - # 5
    frequency:     2.7462377404
  - # 6
    frequency:     3.2952204049

- q-position: [    0.4166667,    0.0208333,    0.0000000 ]
  weight: 24   
  band:
  - # 1
    frequency:     1.4821580882
  - # 2
    frequency:     1.5227853076
  - # 3
    frequency:     2.3160716495
  - # 4
    frequency:     2.7180120002
  - # 5
    frequency:     2.7468830433
  - # 6
    frequency:     3.2441124861

- q-position: [    0.4375000,    0.0208333,    0.0000000 ]
  weight: 24   
  band:
  - # 1
    frequency:     1.5208204765
  - # 2
    frequency:     1.5532528286
  - # 3
    frequency:     2.4085881279
  - # 4
    frequency:     2.7196178820
  - # 5
    frequency:     2.7438423518
  - # 6
    frequency:     3.1851749536

- q-position: [    0.4583333,    0.0208333,    0.0000000 ]
  weight: 24   
  band:
  - # 1
    frequency:     1.5524876845
  - # 2
    frequency:     1.5752377074
  - # 3
    frequency:     2.4942701041
  - # 4
    frequency:     2.7194346887
  - # 5
    frequency:     2.7401629147
  - # 6
    frequency:     3.1227273965

- q-position: [    0.4791667,    0.0208333,    0.0000000 ]
  weight: 24   
  band:
  - # 1
    frequency:     1.5759468546
  - # 2
    frequency:     1.5878187440
  - # 3
    frequency:     2.5630708706
  - # 4
    frequency:     2.7193783186
  - # 5
    frequency:     2.7389052242
  - # 6
    frequency:     3.0656214105

- q-position: [    0.5000000,    0.0208333,    0.0000000 ]
  weight: 24   
  band:
  - # 1
    frequency:     1.5901646650
  - # 2
    frequency:     1.5903706859
  - # 3
    frequency:     2.5993956502
  - # 4
    frequency:     2.7208543162
  - # 5
    frequency:     2.7397347026
  - # 6
    frequency:     3.0311234642

- q-position: [   -0.4791667,    0.0208333,    0.0000000 ]
  weight: 24   
  band:
  - # 1
    frequency:     1.5826110325
  - # 2
    frequency:     1.5944723734
  - # 3
    frequency:     2.5915008810
  - # 4
    frequency:     2.7245497327
  - # 5
    frequency:     2.7358332122
  - # 6
    frequency:     3.0384614763

- q-position: [   -0.4583333,    0.0208333,    0.0000000 ]
  weight: 24   
  band:
  - # 1
    frequency:     1.5649669905
  - # 2
    frequency:     1.5886889084
  - # 3
    frequency:     2.5427180111
  - # 4
    frequency:     2.7285991452
  - # 5
    frequency:     2.7303073356
  - # 6
    frequency:     3.0827760653

- q-position: [   -0.4375000,    0.0208333,    0.0000000 ]
  weight: 24   
  band:
  - # 1
    frequency:     1.5383467526
  - # 2
    frequency:     1.5731301180
  - # 3
    frequency:     2.4671273721
  - # 4
    frequency:     2.7240842677
  - # 5
    frequency:     2.7371341068
  - # 6
    frequency:     3.1430725813

- q-position: [   -0.4166667,    0.0208333,    0.0000000 ]
  weight: 24   
  band:
  - # 1
    frequency:     1.5039212515
  - # 2
    frequency:     1.5485033648
  - # 3
    frequency:     2.3785466391
  - # 4
    frequency:     2.7212562557
  - # 5
    frequency:     2.7433435320
  - # 6
    frequency:     3.2051114940

- q-position: [   -0.3958333,    0.0208333,    0.0000000 ]
  weight: 24   
  band:
  - # 1
    frequency:     1.4629806403
  - # 2
    frequency:     1.5157380929
  - # 3
    frequency:     2.2850911186
  - # 4
    frequency:     2.7171158113
  - # 5
    frequency:     2.7467785415
  - # 6
    frequency:     3.2618990975

- q-position: [   -0.3750000,    0.0208333,    0.0000000 ]
  weight: 24   
  band:
  - # 1
    frequency:     1.4167558039
  - # 2
    frequency:     1.4758177486
  - # 3
    frequency:     2.1909149941
  - # 4
    frequency:     2.7088289629
  - # 5
    frequency:     2.7450463554
  - # 6
    frequency:     3.3099820267

- q-position: [   -0.3541667,    0.0208333,    0.0000000 ]
  weight: 24   
  band:
  - # 1
    frequency:     1.3662961693
  - # 2
    frequency:     1.4296565253
  - # 3
    frequency:     2.0980319141
  - # 4
    frequency:     2.6938112041
  - # 5
    frequency:     2.7357179897
  - # 6
    frequency:     3.3476800740

- q-position: [   -0.3333333,    0.0208333,    0.0000000 ]
  weight: 24   
  band:
  - # 1
    frequency:     1.3124087119
  - # 2
    frequency:     1.3780324384
  - # 3
    frequency:     2.0071545736
  - # 4
    frequency:     2.6697047923
  - # 5
    frequency:     2.7164771936
  - # 6
    frequency:     3.3743834245

- q-position: [   -0.3125000,    0.0208333,    0.0000000 ]
  weight: 24   
  band:
  - # 1
    frequency:     1.2556467831
  - # 2
    frequency:     1.3215671749
  - # 3
    frequency:     1.9180906890
  - # 4
    frequency:     2.6344009062
  - # 5
    frequency:     2.6852250698
  - # 6
    frequency:     3.3902426944

- q-position: [   -0.2916667,    0.0208333,    0.0000000 ]
  weight: 24   
  band:
  - # 1
    frequency:     1.1963331320
  - # 2
    frequency:     1.2607365093
  - # 3
    frequency:     1.8299906333
  - # 4
    frequency:     2.5860795926
  - # 5
    frequency:     2.6401539673
  - # 6
    frequency:     3.3959958716

- q-position: [   -0.2708333,    0.0208333,    0.0000000 ]
  weight: 24   
  band:
  - # 1
    frequency:     1.1346028272
  - # 2
    frequency:     1.1958969994
  - # 3
    frequency:     1.7415545597
  - # 4
    frequency:     2.5232540880
  - # 5
    frequency:     2.5798031509
  - # 6
    frequency:     3.3928386629

- q-position: [   -0.2500000,    0.0208333,    0.0000000 ]
  weight: 24   
  band:
  - # 1
    frequency:     1.0704546625
  - # 2
    frequency:     1.1273192089
  - # 3
    frequency:     1.6512284390
  - # 4
    frequency:     2.4448161877
  - # 5
    frequency:     2.5031051921
  - # 6
    frequency:     3.3823035160

- q-position: [   -0.2291667,    0.0208333,    0.0000000 ]
  weight: 24   
  band:
  - # 1
    frequency:     1.0038027688
  - # 2
    frequency:     1.0552217379
  - # 3
    frequency:     1.5573884264
  - # 4
    frequency:     2.3500829689
  - # 5
    frequency:     2.4094291488
  - # 6
    frequency:     3.3661356087

- q-position: [   -0.2083333,    0.0208333,    0.0000000 ]
  weight: 24   
  band:
  - # 1
    frequency:     0.9345230920
  - # 2
    frequency:     0.9798029821
  - # 3
    frequency:     1.4585042741
  - # 4
    frequency:     2.2388474946
  - # 5
    frequency:     2.2986255282
  - # 6
    frequency:     3.3461645077

- q-position: [   -0.1875000,    0.0208333,    0.0000000 ]
  weight: 24   
  band:
  - # 1
    frequency:     0.8624914760
  - # 2
    frequency:     0.9012688229
  - # 3
    frequency:     1.3532738084
  - # 4
    frequency:     2.1114394450
  - # 5
    frequency:     2.1710791482
  - # 6
    frequency:     3.3241759775

- q-position: [   -0.1666667,    0.0208333,    0.0000000 ]
  weight: 24   
  band:
  - # 1
    frequency:     0.7876106258
  - # 2
    frequency:     0.8198545268
  - # 3
    frequency:     1.2407257416
  - # 4
    frequency:     1.9688073605
  - # 5
    frequency:     2.0277799495
  - # 6
    frequency:     3.3017923587

- q-position: [   -0.1458333,    0.0208333,    0.0000000 ]
  weight: 24   
  band:
  - # 1
    frequency:     0.7098215893
  - # 2
    frequency:     0.7358378039
  - # 3
    frequency:     1.1202938458
  - # 4
    frequency:     1.8126445548
  - # 5
    frequency:     1.8704301886
  - # 6
    frequency:     3.2803725576

- q-position: [   -0.1250000,    0.0208333,    0.0000000 ]
  weight: 24   
  band:
  - # 1
    frequency:     0.6290908222
  - # 2
    frequency:     0.6495363074
  - # 3
    frequency:     0.9918708889
  - # 4
    frequency:     1.6456002426
  - # 5
    frequency:     1.7016226876
  - # 6
    frequency:     3.2609432002

- q-position: [   -0.1041667,    0.0208333,    0.0000000 ]
  weight: 24   
  band:
  - # 1
    frequency:     0.5453563920
  - # 2
    frequency:     0.5612752128
  - # 3
    frequency:     0.8558581318
  - # 4
    frequency:     1.4716534135
  - # 5
    frequency:     1.5251548549
  - # 6
    frequency:     3.2441696808

- q-position: [   -0.0833333,    0.0208333,    0.0000000 ]
  weight: 24   
  band:
  - # 1
    frequency:     0.4584170741
  - # 2
    frequency:     0.4713004133
  - # 3
    frequency:     0.7132438873
  - # 4
    frequency:     1.2967842076
  - # 5
    frequency:     1.3465917769
  - # 6
    frequency:     3.2303686879

- q-position: [   -0.0625000,    0.0208333,    0.0000000 ]
  weight: 24   
  band:
  - # 1
    frequency:     0.3678347570
  - # 2
    frequency:     0.3796347422
  - # 3
    frequency:     0.5658005734
  - # 4
    frequency:     1.1301184118
  - # 5
    frequency:     1.1742321693
  - # 6
    frequency:     3.2195508847

- q-position: [   -0.0416667,    0.0208333,    0.0000000 ]
  weight: 24   
  band:
  - # 1
    frequency:     0.2735025466
  - # 2
    frequency:     0.2861539756
  - # 3
    frequency:     0.4167144518
  - # 4
    frequency:     0.9855166874
  - # 5
    frequency:     1.0204690995
  - # 6
    frequency:     3.2114558326

- q-position: [   -0.0208333,    0.0208333,    0.0000000 ]
  weight: 12   
  band:
  - # 1
    frequency:     0.1803536852
  - # 2
    frequency:     0.1927853976
  - # 3
    frequency:     0.2732594092
  - # 4
    frequency:     0.8825300714
  - # 5
    frequency:     0.9025350308
  - # 6
    frequency:     3.2054858055

- q-position: [    0.0416667,    0.0416667,    0.0000000 ]
  weight: 6    
  band:
  - # 1
    frequency:     0.2461963652
  - # 2
    frequency:     0.2461963652
  - # 3
    frequency:     0.4017177572
  - # 4
    frequency:     0.9510233307
  - # 5
    frequency:     0.9510233307
  - # 6
    frequency:     3.2198281580

- q-position: [    0.0625000,    0.0416667,    0.0000000 ]
  weight: 24   
  band:
  - # 1
    frequency:     0.3126613779
  - # 2
    frequency:     0.3154982111
  - # 3
    frequency:     0.5135938495
  - # 4
    frequency:     1.0408756808
  - # 5
    frequency:     1.0493040487
  - # 6
    frequency:     3.2273533279

- q-position: [    0.0833333,    0.0416667,    0.0000000 ]
  weight: 24   
  band:
  - # 1
    frequency:     0.3899579048
  - # 2
    frequency:     0.3980496951
  - # 3
    frequency:     0.6398353786
  - # 4
    frequency:     1.1690045467
  - # 5
    frequency:     1.1941872871
  - # 6
    frequency:     3.2340197186

- q-position: [    0.1041667,    0.0416667,    0.0000000 ]
  weight: 24   
  band:
  - # 1
    frequency:     0.4692965462
  - # 2
    frequency:     0.4837378748
  - # 3
    frequency:     0.7715184267
  - # 4
    frequency:     1.3198948863
  - # 5
    frequency:     1.3617446696
  - # 6
    frequency:     3.2419230806

- q-position: [    0.1250000,    0.0416667,    0.0000000 ]
  weight: 24   
  band:
  - # 1
    frequency:     0.5478727037
  - # 2
    frequency:     0.5700292812
  - # 3
    frequency:     0.9032087386
  - # 4
    frequency:     1.4810510300
  - # 5
    frequency:     1.5370795049
  - # 6
    frequency:     3.2520367288

- q-position: [    0.1458333,    0.0416667,    0.0000000 ]
  weight: 24   
  band:
  - # 1
    frequency:     0.6247783472
  - # 2
    frequency:     0.6560168905
  - # 3
    frequency:     1.0314842676
  - # 4
    frequency:     1.6435081794
  - # 5
    frequency:     1.7111619132
  - # 6
    frequency:     3.2647034065

- q-position: [    0.1666667,    0.0416667,    0.0000000 ]
  weight: 24   
  band:
  - # 1
    frequency:     0.6996617136
  - # 2
    frequency:     0.7410255073
  - # 3
    frequency:     1.1543114150
  - # 4
    frequency:     1.8010829707
  - # 5
    frequency:     1.8782176936
  - # 6
    frequency:     3.2798399041

- q-position: [    0.1875000,    0.0416667,    0.0000000 ]
  weight: 24   
  band:
  - # 1
    frequency:     0.7723792846
  - # 2
    frequency:     0.8244378344
  - # 3
    frequency:     1.2706277419
  - # 4
    frequency:     1.9495514101
  - # 5
    frequency:     2.0343679317
  - # 6
    frequency:     3.2969766643

- q-position: [    0.2083333,    0.0416667,    0.0000000 ]
  weight: 24   
  band:
  - # 1
    frequency:     0.8429094320
  - # 2
    frequency:     0.9057065041
  - # 3
    frequency:     1.3800930417
  - # 4
    frequency:     2.0860664705
  - # 5
    frequency:     2.1769514287
  - # 6
    frequency:     3.3152699503

- q-position: [    0.2291667,    0.0416667,    0.0000000 ]
  weight: 24   
  band:
  - # 1
    frequency:     0.9113195155
  - # 2
    frequency:     0.9843683382
  - # 3
    frequency:     1.4829368298
  - # 4
    frequency:     2.2087926150
  - # 5
    frequency:     2.3041797951
  - # 6
    frequency:     3.3335351938

- q-position: [    0.2500000,    0.0416667,    0.0000000 ]
  weight: 24   
  band:
  - # 1
    frequency:     0.9777370703
  - # 2
    frequency:     1.0600430599
  - # 3
    frequency:     1.5798457599
  - # 4
    frequency:     2.3166805417
  - # 5
    frequency:     2.4149563083
  - # 6
    frequency:     3.3503120490

- q-position: [    0.2708333,    0.0416667,    0.0000000 ]
  weight: 24   
  band:
  - # 1
    frequency:     1.0423156920
  - # 2
    frequency:     1.1324186341
  - # 3
    frequency:     1.6718584780
  - # 4
    frequency:     2.4093230633
  - # 5
    frequency:     2.5087785779
  - # 6
    frequency:     3.3639564556

- q-position: [    0.2916667,    0.0416667,    0.0000000 ]
  weight: 24   
  band:
  - # 1
    frequency:     1.1051952185
  - # 2
    frequency:     1.2012238275
  - # 3
    frequency:     1.7602512558
  - # 4
    frequency:     2.4868556335
  - # 5
    frequency:     2.5856849275
  - # 6
    frequency:     3.3727504082

- q-position: [    0.3125000,    0.0416667,    0.0000000 ]
  weight: 24   
  band:
  - # 1
    frequency:     1.1664576960
  - # 2
    frequency:     1.2661872838
  - # 3
    frequency:     1.8464070144
  - # 4
    frequency:     2.5498805686
  - # 5
    frequency:     2.6462219769
  - # 6
    frequency:     3.3750211296

- q-position: [    0.3333333,    0.0416667,    0.0000000 ]
  weight: 24   
  band:
  - # 1
    frequency:     1.2260811295
  - # 2
    frequency:     1.3269847036
  - # 3
    frequency:     1.9316653424
  - # 4
    frequency:     2.5994032312
  - # 5
    frequency:     2.6914197448
  - # 6
    frequency:     3.3692643422

- q-position: [    0.3541667,    0.0416667,    0.0000000 ]
  weight: 24   
  band:
  - # 1
    frequency:     1.2838934953
  - # 2
    frequency:     1.3831812059
  - # 3
    frequency:     2.0171523865
  - # 4
    frequency:     2.6367734854
  - # 5
    frequency:     2.7227672167
  - # 6
    frequency:     3.3542690785

- q-position: [    0.3750000,    0.0416667,    0.0000000 ]
  weight: 24   
  band:
  - # 1
    frequency:     1.3395303646
  - # 2
    frequency:     1.4341819820
  - # 3
    frequency:     2.1035863879
  - # 4
    frequency:     2.6636280192
  - # 5
    frequency:     2.7421881009
  - # 6
    frequency:     3.3292445061

- q-position: [    0.3958333,    0.0416667,    0.0000000 ]
  weight: 24   
  band:
  - # 1
    frequency:     1.3924011067
  - # 2
    frequency:     1.4792071519
  - # 3
    frequency:     2.1910442043
  - # 4
    frequency:     2.6818293390
  - # 5
    frequency:     2.7520242057
  - # 6
    frequency:     3.2939564401

- q-position: [    0.4166667,    0.0416667,    0.0000000 ]
  weight: 24   
  band:
  - # 1
    frequency:     1.4416712690
  - # 2
    frequency:     1.5173045948
  - # 3
    frequency:     2.2786461332
  - # 4
    frequency:     2.6933956602
  - # 5
    frequency:     2.7550448002
  - # 6
    frequency:     3.2489008502

- q-position: [    0.4375000,    0.0416667,    0.0000000 ]
  weight: 24   
  band:
  - # 1
    frequency:     1.4862721629
  - # 2
    frequency:     1.5474096683
  - # 3
    frequency:     2.3640497330
  - # 4
    frequency:     2.7004130866
  - # 5
    frequency:     2.7545140398
  - # 6
    frequency:     3.1955937063

- q-position: [    0.4583333,    0.0416667,    0.0000000 ]
  weight: 24   
  band:
  - # 1