natom:   64
displacements:
- atom:    1
  direction:
    [   0.0000000000000000,  0.0000000000000000,  1.0000000000000000 ]
  displacement:
    [   0.0040848989666515,  0.0040848995548162,  0.0081625483802127 ]
- atom:    1
  direction:
    [   0.0000000000000000,  0.0000000000000000, -1.0000000000000000 ]
  displacement:
    [  -0.0040848989666515, -0.0040848995548162, -0.0081625483802127 ]
- atom:    9
  direction:
    [   0.0000000000000000,  0.0000000000000000,  1.0000000000000000 ]
  displacement:
    [   0.0040848989666515,  0.0040848995548162,  0.0081625483802127 ]
- atom:    9
  direction:
    [   0.0000000000000000,  0.0000000000000000, -1.0000000000000000 ]
  displacement:
    [  -0.0040848989666515, -0.0040848995548162, -0.0081625483802127 ]
- atom:   17
  direction:
    [   0.0000000000000000,  0.0000000000000000,  1.0000000000000000 ]
  displacement:
    [   0.0040848989666515,  0.0040848995548162,  0.0081625483802127 ]
- atom:   17
  direction:
    [   0.0000000000000000,  0.0000000000000000, -1.0000000000000000 ]
  displacement:
    [  -0.0040848989666515, -0.0040848995548162, -0.0081625483802127 ]
- atom:   25
  direction:
    [   0.0000000000000000,  0.0000000000000000,  1.0000000000000000 ]
  displacement:
    [   0.0040848989666515,  0.0040848995548162,  0.0081625483802127 ]
- atom:   25
  direction:
    [   0.0000000000000000,  0.0000000000000000, -1.0000000000000000 ]
  displacement:
    [  -0.0040848989666515, -0.0040848995548162, -0.0081625483802127 ]
- atom:   33
  direction:
    [   1.0000000000000000,  0.0000000000000000,  0.0000000000000000 ]
  displacement:
    [   0.0100000000000000,  0.0000000007199255,  0.0000000000000000 ]
- atom:   33
  direction:
    [  -1.0000000000000000,  0.0000000000000000,  0.0000000000000000 ]
  displacement:
    [  -0.0100000000000000, -0.0000000007199255,  0.0000000000000000 ]
- atom:   33
  direction:
    [   0.0000000000000000,  1.0000000000000000,  0.0000000000000000 ]
  displacement:
    [  -0.0000000007199255,  0.0100000000000000, -0.0000000000000000 ]
- atom:   33
  direction:
    [   0.0000000000000000, -1.0000000000000000,  0.0000000000000000 ]
  displacement:
    [   0.0000000007199255, -0.0100000000000000,  0.0000000000000000 ]
- atom:   33
  direction:
    [   0.0000000000000000,  0.0000000000000000,  1.0000000000000000 ]
  displacement:
    [   0.0040848989666515,  0.0040848995548162,  0.0081625483802127 ]
- atom:   33
  direction:
    [   0.0000000000000000,  0.0000000000000000, -1.0000000000000000 ]
  displacement:
    [  -0.0040848989666515, -0.0040848995548162, -0.0081625483802127 ]
lattice:
- [   11.432095012377820,   0.000000823025711,   0.000000000000000 ]
- [   -0.000000823025711,  11.432095012377820,  -0.000000000000001 ]
- [    5.716047094676055,   5.716047917701774,  11.421949804578318 ]
atoms:
- symbol: Cu # 1
  position: [   0.00000000000000,  0.00000000000000,  0.00000000000000 ]
- symbol: Cu # 2
  position: [   0.50000000000000,  0.00000000000000,  0.00000000000000 ]
- symbol: Cu # 3
  position: [   0.00000000000000,  0.50000000000000,  0.00000000000000 ]
- symbol: Cu # 4
  position: [   0.50000000000000,  0.50000000000000,  0.00000000000000 ]
- symbol: Cu # 5
  position: [   0.00000000000000,  0.00000000000000,  0.50000000000000 ]
- symbol: Cu # 6
  position: [   0.50000000000000,  0.00000000000000,  0.50000000000000 ]
- symbol: Cu # 7
  position: [   0.00000000000000,  0.50000000000000,  0.50000000000000 ]
- symbol: Cu # 8
  position: [   0.50000000000000,  0.50000000000000,  0.50000000000000 ]
- symbol: Cu # 9
  position: [   0.37500000000000,  0.12500000000000,  0.25000000000000 ]
- symbol: Cu # 10
  position: [   0.87500000000000,  0.12500000000000,  0.25000000000000 ]
- symbol: Cu # 11
  position: [   0.37500000000000,  0.62500000000000,  0.25000000000000 ]
- symbol: Cu # 12
  position: [   0.87500000000000,  0.62500000000000,  0.25000000000000 ]
- symbol: Cu # 13
  position: [   0.37500000000000,  0.12500000000000,  0.75000000000000 ]
- symbol: Cu # 14
  position: [   0.87500000000000,  0.12500000000000,  0.75000000000000 ]
- symbol: Cu # 15
  position: [   0.37500000000000,  0.62500000000000,  0.75000000000000 ]
- symbol: Cu # 16
  position: [   0.87500000000000,  0.62500000000000,  0.75000000000000 ]
- symbol: Zn # 17
  position: [   0.25000000000000,  0.25000000000000,  0.00000000000000 ]
- symbol: Zn # 18
  position: [   0.75000000000000,  0.25000000000000,  0.00000000000000 ]
- symbol: Zn # 19
  position: [   0.25000000000000,  0.75000000000000,  0.00000000000000 ]
- symbol: Zn # 20
  position: [   0.75000000000000,  0.75000000000000,  0.00000000000000 ]
- symbol: Zn # 21
  position: [   0.25000000000000,  0.25000000000000,  0.50000000000000 ]
- symbol: Zn # 22
  position: [   0.75000000000000,  0.25000000000000,  0.50000000000000 ]
- symbol: Zn # 23
  position: [   0.25000000000000,  0.75000000000000,  0.50000000000000 ]
- symbol: Zn # 24
  position: [   0.75000000000000,  0.75000000000000,  0.50000000000000 ]
- symbol: Sn # 25
  position: [   0.12500000000000,  0.37500000000000,  0.25000000000000 ]
- symbol: Sn # 26
  position: [   0.62500000000000,  0.37500000000000,  0.25000000000000 ]
- symbol: Sn # 27
  position: [   0.12500000000000,  0.87500000000000,  0.25000000000000 ]
- symbol: Sn # 28
  position: [   0.62500000000000,  0.87500000000000,  0.25000000000000 ]
- symbol: Sn # 29
  position: [   0.12500000000000,  0.37500000000000,  0.75000000000000 ]
- symbol: Sn # 30
  position: [   0.62500000000000,  0.37500000000000,  0.75000000000000 ]
- symbol: Sn # 31
  position: [   0.12500000000000,  0.87500000000000,  0.75000000000000 ]
- symbol: Sn # 32
  position: [   0.62500000000000,  0.87500000000000,  0.75000000000000 ]
- symbol: Se # 33
  position: [   0.05504570581586,  0.07027733547287,  0.11958004506841 ]
- symbol: Se # 34
  position: [   0.55504570581586,  0.07027733547287,  0.11958004506841 ]
- symbol: Se # 35
  position: [   0.05504570581586,  0.57027733547287,  0.11958004506841 ]
- symbol: Se # 36
  position: [   0.55504570581586,  0.57027733547287,  0.11958004506841 ]
- symbol: Se # 37
  position: [   0.05504570581586,  0.07027733547287,  0.61958004506841 ]
- symbol: Se # 38
  position: [   0.55504570581586,  0.07027733547287,  0.61958004506841 ]
- symbol: Se # 39
  position: [   0.05504570581586,  0.57027733547287,  0.61958004506841 ]
- symbol: Se # 40
  position: [   0.55504570581586,  0.57027733547287,  0.61958004506841 ]
- symbol: Se # 41
  position: [   0.32537424911573,  0.31014261945871,  0.11958004506841 ]
- symbol: Se # 42
  position: [   0.82537424911573,  0.31014261945871,  0.11958004506841 ]
- symbol: Se # 43
  position: [   0.32537424911573,  0.81014261945871,  0.11958004506841 ]
- symbol: Se # 44
  position: [   0.82537424911573,  0.81014261945871,  0.11958004506841 ]
- symbol: Se # 45
  position: [   0.32537424911573,  0.31014261945871,  0.61958004506841 ]
- symbol: Se # 46
  position: [   0.82537424911573,  0.31014261945871,  0.61958004506841 ]
- symbol: Se # 47
  position: [   0.32537424911573,  0.81014261945871,  0.61958004506841 ]
- symbol: Se # 48
  position: [   0.82537424911573,  0.81014261945871,  0.61958004506841 ]
- symbol: Se # 49
  position: [   0.42972266452713,  0.17462575088427,  0.38041995493159 ]
- symbol: Se # 50
  position: [   0.92972266452713,  0.17462575088427,  0.38041995493159 ]
- symbol: Se # 51
  position: [   0.42972266452713,  0.67462575088427,  0.38041995493159 ]
- symbol: Se # 52
  position: [   0.92972266452713,  0.67462575088427,  0.38041995493159 ]
- symbol: Se # 53
  position: [   0.42972266452713,  0.17462575088427,  0.88041995493159 ]
- symbol: Se # 54
  position: [   0.92972266452713,  0.17462575088427,  0.88041995493159 ]
- symbol: Se # 55
  position: [   0.42972266452713,  0.67462575088427,  0.88041995493159 ]
- symbol: Se # 56
  position: [   0.92972266452713,  0.67462575088427,  0.88041995493159 ]
- symbol: Se # 57
  position: [   0.18985738054129,  0.44495429418414,  0.38041995493159 ]
- symbol: Se # 58
  position: [   0.68985738054129,  0.44495429418414,  0.38041995493159 ]
- symbol: Se # 59
  position: [   0.18985738054129,  0.94495429418414,  0.38041995493159 ]
- symbol: Se # 60
  position: [   0.68985738054129,  0.94495429418414,  0.38041995493159 ]
- symbol: Se # 61
  position: [   0.18985738054129,  0.44495429418414,  0.88041995493159 ]
- symbol: Se # 62
  position: [   0.68985738054129,  0.44495429418414,  0.88041995493159 ]
- symbol: Se # 63
  position: [   0.18985738054129,  0.94495429418414,  0.88041995493159 ]
- symbol: Se # 64
  position: [   0.68985738054129,  0.94495429418414,  0.88041995493159 ]
