nqpoint: 404    
npath: 4      
natom: 2      
phonon:
- q-position: [    0.0000000,    0.0000000,    0.0000000 ]
  distance:    0.0000000
  band:
  - # 1
    frequency:   -0.0024960021
  - # 2
    frequency:   -0.0024960021
  - # 3
    frequency:   -0.0024779137
  - # 4
    frequency:    1.3556719504
  - # 5
    frequency:    1.3556719504
  - # 6
    frequency:    3.3780517124

- q-position: [    0.0050000,    0.0025000,    0.0075000 ]
  distance:    0.0017339
  band:
  - # 1
    frequency:    0.0346903427
  - # 2
    frequency:    0.0385799373
  - # 3
    frequency:    0.0568618841
  - # 4
    frequency:    1.3576110254
  - # 5
    frequency:    1.3578414090
  - # 6
    frequency:    3.3783247230

- q-position: [    0.0100000,    0.0050000,    0.0150000 ]
  distance:    0.0034678
  band:
  - # 1
    frequency:    0.0693816148
  - # 2
    frequency:    0.0771283983
  - # 3
    frequency:    0.1137574030
  - # 4
    frequency:    1.3634002630
  - # 5
    frequency:    1.3643204086
  - # 6
    frequency:    3.3791397127

- q-position: [    0.0150000,    0.0075000,    0.0225000 ]
  distance:    0.0052018
  band:
  - # 1
    frequency:    0.1037795523
  - # 2
    frequency:    0.1153509521
  - # 3
    frequency:    0.1705407826
  - # 4
    frequency:    1.3729567316
  - # 5
    frequency:    1.3750217881
  - # 6
    frequency:    3.3804846022

- q-position: [    0.0200000,    0.0100000,    0.0300000 ]
  distance:    0.0069357
  band:
  - # 1
    frequency:    0.1377837869
  - # 2
    frequency:    0.1531321202
  - # 3
    frequency:    0.2271797520
  - # 4
    frequency:    1.3861455725
  - # 5
    frequency:    1.3898034564
  - # 6
    frequency:    3.3823394152

- q-position: [    0.0250000,    0.0125000,    0.0375000 ]
  distance:    0.0086696
  band:
  - # 1
    frequency:    0.1712857458
  - # 2
    frequency:    0.1903554333
  - # 3
    frequency:    0.2836326916
  - # 4
    frequency:    1.4027847763
  - # 5
    frequency:    1.4084729983
  - # 6
    frequency:    3.3846765094

- q-position: [    0.0300000,    0.0150000,    0.0450000 ]
  distance:    0.0104035
  band:
  - # 1
    frequency:    0.2041855820
  - # 2
    frequency:    0.2269197752
  - # 3
    frequency:    0.3398579869
  - # 4
    frequency:    1.4226513761
  - # 5
    frequency:    1.4307937917
  - # 6
    frequency:    3.3874608935

- q-position: [    0.0350000,    0.0175000,    0.0525000 ]
  distance:    0.0121375
  band:
  - # 1
    frequency:    0.2363953826
  - # 2
    frequency:    0.2627427209
  - # 3
    frequency:    0.3958155671
  - # 4
    frequency:    1.4454886263
  - # 5
    frequency:    1.4564923066
  - # 6
    frequency:    3.3906506263

- q-position: [    0.0400000,    0.0200000,    0.0600000 ]
  distance:    0.0138714
  band:
  - # 1
    frequency:    0.2678399474
  - # 2
    frequency:    0.2977610366
  - # 3
    frequency:    0.4514673891
  - # 4
    frequency:    1.4710137059
  - # 5
    frequency:    1.4852661721
  - # 6
    frequency:    3.3941972886

- q-position: [    0.0450000,    0.0225000,    0.0675000 ]
  distance:    0.0156053
  band:
  - # 1
    frequency:    0.2984565183
  - # 2
    frequency:    0.3319296791
  - # 3
    frequency:    0.5067776247
  - # 4
    frequency:    1.4989254926
  - # 5
    frequency:    1.5167925574
  - # 6
    frequency:    3.3980465222

- q-position: [    0.0500000,    0.0250000,    0.0750000 ]
  distance:    0.0173392
  band:
  - # 1
    frequency:    0.3281938950
  - # 2
    frequency:    0.3652198458
  - # 3
    frequency:    0.5617127148
  - # 4
    frequency:    1.5289120110
  - # 5
    frequency:    1.5507364125
  - # 6
    frequency:    3.4021386263

- q-position: [    0.0550000,    0.0275000,    0.0825000 ]
  distance:    0.0190732
  band:
  - # 1
    frequency:    0.3570112123
  - # 2
    frequency:    0.3976164955
  - # 3
    frequency:    0.6162413437
  - # 4
    frequency:    1.5606572439
  - # 5
    frequency:    1.5867581674
  - # 6
    frequency:    3.4064092023

- q-position: [    0.0600000,    0.0300000,    0.0900000 ]
  distance:    0.0208071
  band:
  - # 1
    frequency:    0.3848765920
  - # 2
    frequency:    0.4291157059
  - # 3
    frequency:    0.6703343589
  - # 4
    frequency:    1.5938470915
  - # 5
    frequency:    1.6245205807
  - # 6
    frequency:    3.4107898371

- q-position: [    0.0650000,    0.0325000,    0.0975000 ]
  distance:    0.0225410
  band:
  - # 1
    frequency:    0.4117658333
  - # 2
    frequency:    0.4597221505
  - # 3
    frequency:    0.7239646499
  - # 4
    frequency:    1.6281743699
  - # 5
    frequency:    1.6636945399
  - # 6
    frequency:    3.4152088161

- q-position: [    0.0700000,    0.0350000,    0.1050000 ]
  distance:    0.0242749
  band:
  - # 1
    frequency:    0.4376612525
  - # 2
    frequency:    0.4894468907
  - # 3
    frequency:    0.7771069919
  - # 4
    frequency:    1.6633428228
  - # 5
    frequency:    1.7039637325
  - # 6
    frequency:    3.4195918563

- q-position: [    0.0750000,    0.0375000,    0.1125000 ]
  distance:    0.0260089
  band:
  - # 1
    frequency:    0.4625507345
  - # 2
    frequency:    0.5183055879
  - # 3
    frequency:    0.8297378604
  - # 4
    frequency:    1.6990701946
  - # 5
    frequency:    1.7450282038
  - # 6
    frequency:    3.4238628501

- q-position: [    0.0800000,    0.0400000,    0.1200000 ]
  distance:    0.0277428
  band:
  - # 1
    frequency:    0.4864270186
  - # 2
    frequency:    0.5463171660
  - # 3
    frequency:    0.8818352158
  - # 4
    frequency:    1.7350904571
  - # 5
    frequency:    1.7866068936
  - # 6
    frequency:    3.4279446119

- q-position: [    0.0850000,    0.0425000,    0.1275000 ]
  distance:    0.0294767
  band:
  - # 1
    frequency:    0.5092872090
  - # 2
    frequency:    0.5735029011
  - # 3
    frequency:    0.9333782590
  - # 4
    frequency:    1.7711553078
  - # 5
    frequency:    1.8284392855
  - # 6
    frequency:    3.4317596208

- q-position: [    0.0900000,    0.0450000,    0.1350000 ]
  distance:    0.0312106
  band:
  - # 1
    frequency:    0.5311324828
  - # 2
    frequency:    0.5998858781
  - # 3
    frequency:    0.9843471581
  - # 4
    frequency:    1.8070350706
  - # 5
    frequency:    1.8702863260
  - # 6
    frequency:    3.4352307507

- q-position: [    0.0950000,    0.0475000,    0.1425000 ]
  distance:    0.0329445
  band:
  - # 1
    frequency:    0.5519679579
  - # 2
    frequency:    0.6254907404
  - # 3
    frequency:    1.0347227462
  - # 4
    frequency:    1.8425191195
  - # 5
    frequency:    1.9119307676
  - # 6
    frequency:    3.4382819837

- q-position: [    0.1000000,    0.0500000,    0.1500000 ]
  distance:    0.0346785
  band:
  - # 1
    frequency:    0.5718026794
  - # 2
    frequency:    0.6503436559
  - # 3
    frequency:    1.0844861910
  - # 4
    frequency:    1.8774159396
  - # 5
    frequency:    1.9531770778
  - # 6
    frequency:    3.4408391017

- q-position: [    0.1050000,    0.0525000,    0.1575000 ]
  distance:    0.0364124
  band:
  - # 1
    frequency:    0.5906496850
  - # 2
    frequency:    0.6744724238
  - # 3
    frequency:    1.1336186386
  - # 4
    frequency:    1.9115529196
  - # 5
    frequency:    1.9938510364
  - # 6
    frequency:    3.4428303514

- q-position: [    0.1100000,    0.0550000,    0.1650000 ]
  distance:    0.0381463
  band:
  - # 1
    frequency:    0.6085261147
  - # 2
    frequency:    0.6979066612
  - # 3
    frequency:    1.1821008318
  - # 4
    frequency:    1.9447759553
  - # 5
    frequency:    2.0337991188
  - # 6
    frequency:    3.4441870815

- q-position: [    0.1150000,    0.0575000,    0.1725000 ]
  distance:    0.0398802
  band:
  - # 1
    frequency:    0.6254533337
  - # 2
    frequency:    0.7206780157
  - # 3
    frequency:    1.2299127083
  - # 4
    frequency:    1.9769489246
  - # 5
    frequency:    2.0728877437
  - # 6
    frequency:    3.4448443482

- q-position: [    0.1200000,    0.0600000,    0.1800000 ]
  distance:    0.0416142
  band:
  - # 1
    frequency:    0.6414570446
  - # 2
    frequency:    0.7428203631
  - # 3
    frequency:    1.2770329802
  - # 4
    frequency:    2.0079530806
  - # 5
    frequency:    2.1110024392
  - # 6
    frequency:    3.4447414895

- q-position: [    0.1250000,    0.0625000,    0.1875000 ]
  distance:    0.0433481
  band:
  - # 1
    frequency:    0.6565673675
  - # 2
    frequency:    0.7643699577
  - # 3
    frequency:    1.3234386995
  - # 4
    frequency:    2.0376863988
  - # 5
    frequency:    2.1480469707
  - # 6
    frequency:    3.4438226671

- q-position: [    0.1300000,    0.0650000,    0.1950000 ]
  distance:    0.0450820
  band:
  - # 1
    frequency:    0.6708188732
  - # 2
    frequency:    0.7853655131
  - # 3
    frequency:    1.3691048133
  - # 4
    frequency:    2.0660628986
  - # 5
    frequency:    2.1839424556
  - # 6
    frequency:    3.4420373769

- q-position: [    0.1350000,    0.0675000,    0.2025000 ]
  distance:    0.0468159
  band:
  - # 1
    frequency:    0.6842505569
  - # 2
    frequency:    0.8058481956
  - # 3
    frequency:    1.4140037132
  - # 4
    frequency:    2.0930119579
  - # 5
    frequency:    2.2186264804
  - # 6
    frequency:    3.4393409285

- q-position: [    0.1400000,    0.0700000,    0.2100000 ]
  distance:    0.0485499
  band:
  - # 1
    frequency:    0.6969057420
  - # 2
    frequency:    0.8258615209
  - # 3
    frequency:    1.4581047833
  - # 4
    frequency:    2.1184776282
  - # 5
    frequency:    2.2520522315
  - # 6
    frequency:    3.4356948954

- q-position: [    0.1450000,    0.0725000,    0.2175000 ]
  distance:    0.0502838
  band:
  - # 1
    frequency:    0.7088319072
  - # 2
    frequency:    0.8454511473
  - # 3
    frequency:    1.5013739523
  - # 4
    frequency:    2.1424179568
  - # 5
    frequency:    2.2841876393
  - # 6
    frequency:    3.4310675380

- q-position: [    0.1500000,    0.0750000,    0.2250000 ]
  distance:    0.0520177
  band:
  - # 1
    frequency:    0.7200804315
  - # 2
    frequency:    0.8646645647
  - # 3
    frequency:    1.5437732550
  - # 4
    frequency:    2.1648043151
  - # 5
    frequency:    2.3150145357
  - # 6
    frequency:    3.4254342018

- q-position: [    0.1550000,    0.0775000,    0.2325000 ]
  distance:    0.0537516
  band:
  - # 1
    frequency:    0.7307062525
  - # 2
    frequency:    0.8835506799
  - # 3
    frequency:    1.5852604102
  - # 4
    frequency:    2.1856207357
  - # 5
    frequency:    2.3445278186
  - # 6
    frequency:    3.4187776914

- q-position: [    0.1600000,    0.0800000,    0.2400000 ]
  distance:    0.0554856
  band:
  - # 1
    frequency:    0.7407674384
  - # 2
    frequency:    0.9021593054
  - # 3
    frequency:    1.6257884236
  - # 4
    frequency:    2.2048632534
  - # 5
    frequency:    2.3727346159
  - # 6
    frequency:    3.4110886251

- q-position: [    0.1650000,    0.0825000,    0.2475000 ]
  distance:    0.0572195
  band:
  - # 1
    frequency:    0.7503246708
  - # 2
    frequency:    0.9205405578
  - # 3
    frequency:    1.6653052256
  - # 4
    frequency:    2.2225392484
  - # 5
    frequency:    2.3996534366
  - # 6
    frequency:    3.4023657698

- q-position: [    0.1700000,    0.0850000,    0.2550000 ]
  distance:    0.0589534
  band:
  - # 1
    frequency:    0.7594406428
  - # 2
    frequency:    0.9387441773
  - # 3
    frequency:    1.7037533584
  - # 4
    frequency:    2.2386667883
  - # 5
    frequency:    2.4253132983
  - # 6
    frequency:    3.3926163579

- q-position: [    0.1750000,    0.0875000,    0.2625000 ]
  distance:    0.0606873
  band:
  - # 1
    frequency:    0.7681793769
  - # 2
    frequency:    0.9568187826
  - # 3
    frequency:    1.7410697288
  - # 4
    frequency:    2.2532739646
  - # 5
    frequency:    2.4497528106
  - # 6
    frequency:    3.3818563882

- q-position: [    0.1800000,    0.0900000,    0.2700000 ]
  distance:    0.0624213
  band:
  - # 1
    frequency:    0.7766054688
  - # 2
    frequency:    0.9748110757
  - # 3
    frequency:    1.7771854486
  - # 4
    frequency:    2.2663982210
  - # 5
    frequency:    2.4730191995
  - # 6
    frequency:    3.3701109072

- q-position: [    0.1850000,    0.0925000,    0.2775000 ]
  distance:    0.0641552
  band:
  - # 1
    frequency:    0.7847832686
  - # 2
    frequency:    0.9927650141
  - # 3
    frequency:    1.8120257908
  - # 4
    frequency:    2.2780856698
  - # 5
    frequency:    2.4951672465
  - # 6
    frequency:    3.3574142706

- q-position: [    0.1900000,    0.0950000,    0.2850000 ]
  distance:    0.0658891
  band:
  - # 1
    frequency:    0.7927760134
  - # 2
    frequency:    1.0107209694
  - # 3
    frequency:    1.8455102920
  - # 4
    frequency:    2.2883903941
  - # 5
    frequency:    2.5162581219
  - # 6
    frequency:    3.3438103774

- q-position: [    0.1950000,    0.0975000,    0.2925000 ]
  distance:    0.0676230
  band:
  - # 1
    frequency:    0.8006449252
  - # 2
    frequency:    1.0287148905
  - # 3
    frequency:    1.8775530421
  - # 4
    frequency:    2.2973737328
  - # 5
    frequency:    2.5363580832
  - # 6
    frequency:    3.3293528688

- q-position: [    0.2000000,    0.1000000,    0.3000000 ]
  distance:    0.0693569
  band:
  - # 1
    frequency:    0.8084482977
  - # 2
    frequency:    1.0467774916
  - # 3
    frequency:    1.9080632001
  - # 4
    frequency:    2.3051035480
  - # 5
    frequency:    2.5555370172
  - # 6
    frequency:    3.3141052777

- q-position: [    0.2050000,    0.1025000,    0.3075000 ]
  distance:    0.0710909
  band:
  - # 1
    frequency:    0.8162405894
  - # 2
    frequency:    1.0649334816
  - # 3
    frequency:    1.9369457817
  - # 4
    frequency:    2.3116534731
  - # 5
    frequency:    2.5738668075
  - # 6
    frequency:    3.2981411079

- q-position: [    0.2100000,    0.1050000,    0.3150000 ]
  distance:    0.0728248
  band:
  - # 1
    frequency:    0.8240715499
  - # 2
    frequency:    1.0832008521
  - # 3
    frequency:    1.9641027581
  - # 4
    frequency:    2.3171021413
  - # 5
    frequency:    2.5914195182
  - # 6
    frequency:    3.2815438179

- q-position: [    0.2150000,    0.1075000,    0.3225000 ]
  distance:    0.0745587
  band:
  - # 1
    frequency:    0.8319854017
  - # 2
    frequency:    1.1015902369
  - # 3
    frequency:    1.9894344976
  - # 4
    frequency:    2.3215323959
  - # 5
    frequency:    2.6082654086
  - # 6
    frequency:    3.2644066716

- q-position: [    0.2200000,    0.1100000,    0.3300000 ]
  distance:    0.0762926
  band:
  - # 1
    frequency:    0.8400201035
  - # 2
    frequency:    1.1201043536
  - # 3
    frequency:    2.0128415668
  - # 4
    frequency:    2.3250304843
  - # 5
    frequency:    2.6244708137
  - # 6
    frequency:    3.2468324102

- q-position: [    0.2250000,    0.1125000,    0.3375000 ]
  distance:    0.0780266
  band:
  - # 1
    frequency:    0.8482067153
  - # 2
    frequency:    1.1387375333
  - # 3
    frequency:    2.0342268865
  - # 4
    frequency:    2.3276852365
  - # 5
    frequency:    2.6400959622
  - # 6
    frequency:    3.2289326907

- q-position: [    0.2300000,    0.1150000,    0.3450000 ]
  distance:    0.0797605
  band:
  - # 1
    frequency:    0.8565688878
  - # 2
    frequency:    1.1574753401
  - # 3
    frequency:    2.0534982123
  - # 4
    frequency:    2.3295872341
  - # 5
    frequency:    2.6551928374
  - # 6
    frequency:    3.2108272249

- q-position: [    0.2350000,    0.1175000,    0.3525000 ]
  distance:    0.0814944
  band:
  - # 1
    frequency:    0.8651224907
  - # 2
    frequency:    1.1762942779
  - # 3
    frequency:    2.0705708832
  - # 4
    frequency:    2.3308279721
  - # 5
    frequency:    2.6698032177
  - # 6
    frequency:    3.1926425496

- q-position: [    0.2400000,    0.1200000,    0.3600000 ]
  distance:    0.0832283
  band:
  - # 1
    frequency:    0.8738753927
  - # 2
    frequency:    1.1951615770
  - # 3
    frequency:    2.0853707647
  - # 4
    frequency:    2.3314990203
  - # 5
    frequency:    2.6839570557
  - # 6
    frequency:    3.1745103597

- q-position: [    0.2450000,    0.1225000,    0.3675000 ]
  distance:    0.0849623
  band:
  - # 1
    frequency:    0.8828273992
  - # 2
    frequency:    1.2140350478
  - # 3
    frequency:    2.0978372962
  - # 4
    frequency:    2.3316911906
  - # 5
    frequency:    2.6976713529
  - # 6
    frequency:    3.1565653457

- q-position: [    0.2500000,    0.1250000,    0.3750000 ]
  distance:    0.0866962
  band:
  - # 1
    frequency:    0.8919703481
  - # 2
    frequency:    1.2328629845
  - # 3
    frequency:    2.1079265606
  - # 4
    frequency:    2.3314937162
  - # 5
    frequency:    2.7109496634
  - # 6
    frequency:    3.1389425061

- q-position: [    0.2550000,    0.1275000,    0.3825000 ]
  distance:    0.0884301
  band:
  - # 1
    frequency:    0.9012883613
  - # 2
    frequency:    1.2515841005
  - # 3
    frequency:    2.1156142945
  - # 4
    frequency:    2.3309934524
  - # 5
    frequency:    2.7237823039
  - # 6
    frequency:    3.1217739499

- q-position: [    0.2600000,    0.1300000,    0.3900000 ]
  distance:    0.0901640
  band:
  - # 1
    frequency:    0.9107582399
  - # 2
    frequency:    1.2701274696
  - # 3
    frequency:    2.1208987720
  - # 4
    frequency:    2.3302741072
  - # 5
    frequency:    2.7361472801
  - # 6
    frequency:    3.1051852673

- q-position: [    0.2650000,    0.1325000,    0.3975000 ]
  distance:    0.0918980
  band:
  - # 1
    frequency:    0.9203499919
  - # 2
    frequency:    1.2884124516
  - # 3
    frequency:    2.1238034944
  - # 4
    frequency:    2.3294155096
  - # 5
    frequency:    2.7480118499
  - # 6
    frequency:    3.0892916279

- q-position: [    0.2700000,    0.1350000,    0.4050000 ]
  distance:    0.0936319
  band:
  - # 1
    frequency:    0.9300274742
  - # 2
    frequency:    1.3063485756
  - # 3
    frequency:    2.1243796067
  - # 4
    frequency:    2.3284929272
  - # 5
    frequency:    2.7593345705
  - # 6
    frequency:    3.0741938555

- q-position: [    0.2750000,    0.1375000,    0.4125000 ]
  distance:    0.0953658
  band:
  - # 1
    frequency:    0.9397491296
  - # 2
    frequency:    1.3238353642
  - # 3
    frequency:    2.1227079403
  - # 4
    frequency:    2.3275764399
  - # 5
    frequency:    2.7700676072
  - # 6
    frequency:    3.0599748065

- q-position: [    0.2800000,    0.1400000,    0.4200000 ]
  distance:    0.0970997
  band:
  - # 1
    frequency:    0.9494688000
  - # 2
    frequency:    1.3407620869
  - # 3
    frequency:    2.1189005603
  - # 4
    frequency:    2.3267303810
  - # 5
    frequency:    2.7801590412
  - # 6
    frequency:    3.0466964405

- q-position: [    0.2850000,    0.1425000,    0.4275000 ]
  distance:    0.0988336
  band:
  - # 1
    frequency:    0.9591365928
  - # 2
    frequency:    1.3570074491
  - # 3
    frequency:    2.1131016800
  - # 4
    frequency:    2.3260128539
  - # 5
    frequency:    2.7895548869
  - # 6
    frequency:    3.0343979824

- q-position: [    0.2900000,    0.1450000,    0.4350000 ]
  distance:    0.1005676
  band:
  - # 1
    frequency:    0.9686997817
  - # 2
    frequency:    1.3724392544
  - # 3
    frequency:    2.1054878171
  - # 4
    frequency:    2.3254753305
  - # 5
    frequency:    2.7982005340
  - # 6
    frequency:    3.0230955452

- q-position: [    0.2950000,    0.1475000,    0.4425000 ]
  distance:    0.1023015
  band:
  - # 1
    frequency:    0.9781037233
  - # 2
    frequency:    1.3869141181
  - # 3
    frequency:    2.0962670857
  - # 4
    frequency:    2.3251623401
  - # 5
    frequency:    2.8060413542
  - # 6
    frequency:    3.0127834806

- q-position: [    0.3000000,    0.1500000,    0.4500000 ]
  distance:    0.1040354
  band:
  - # 1
    frequency:    0.9872927703
  - # 2
    frequency:    1.4002773808
  - # 3
    frequency:    2.0856775398
  - # 4
    frequency:    2.3251112533
  - # 5
    frequency:    2.8130222789
  - # 6
    frequency:    3.0034375777

- q-position: [    0.3050000,    0.1525000,    0.4575000 ]
  distance:    0.1057693
  band:
  - # 1
    frequency:    0.9962111675
  - # 2
    frequency:    1.4123634610
  - # 3
    frequency:    2.0739844797
  - # 4
    frequency:    2.3253521637
  - # 5
    frequency:    2.8190862842
  - # 6
    frequency:    2.9950200086

- q-position: [    0.3100000,    0.1550000,    0.4650000 ]
  distance:    0.1075033
  band:
  - # 1
    frequency:    1.0048039170
  - # 2
    frequency:    1.4229969984
  - # 3
    frequency:    2.0614765783
  - # 4
    frequency:    2.3259078701
  - # 5
    frequency:    2.8241719445
  - # 6
    frequency:    2.9874856357

- q-position: [    0.3150000,    0.1575000,    0.4725000 ]
  distance:    0.1092372
  band:
  - # 1
    frequency:    1.0130176014
  - # 2
    frequency:    1.4319952670
  - # 3
    frequency:    2.0484605928
  - # 4
    frequency:    2.3267939594
  - # 5
    frequency:    2.8282105553
  - # 6
    frequency:    2.9807889263

- q-position: [    0.3200000,    0.1600000,    0.4800000 ]
  distance:    0.1109711
  band:
  - # 1
    frequency:    1.0208011549
  - # 2
    frequency:    1.4391724211
  - # 3
    frequency:    2.0352543208
  - # 4
    frequency:    2.3280189861
  - # 5
    frequency:    2.8311237765
  - # 6
    frequency:    2.9748902825

- q-position: [    0.3250000,    0.1625000,    0.4875000 ]
  distance:    0.1127050
  band:
  - # 1
    frequency:    1.0281065783
  - # 2
    frequency:    1.4443461286
  - # 3
    frequency:    2.0221774317
  - # 4
    frequency:    2.3295847462
  - # 5
    frequency:    2.8328231900
  - # 6
    frequency:    2.9697601992

- q-position: [    0.3300000,    0.1650000,    0.4950000 ]
  distance:    0.1144390
  band:
  - # 1
    frequency:    1.0348895893
  - # 2
    frequency:    1.4473469235
  - # 3
    frequency:    2.0095399624
  - # 4
    frequency:    2.3314866376
  - # 5
    frequency:    2.8332133151
  - # 6
    frequency:    2.9653795690

- q-position: [    0.3350000,    0.1675000,    0.5025000 ]
  distance:    0.1161729
  band:
  - # 1
    frequency:    1.0411102077
  - # 2
    frequency:    1.4480300919
  - # 3
    frequency:    1.9976287206
  - # 4
    frequency:    2.3337140990
  - # 5
    frequency:    2.8321990528
  - # 6
    frequency:    2.9617350930

- q-position: [    0.3400000,    0.1700000,    0.5100000 ]
  distance:    0.1179068
  band:
  - # 1
    frequency:    1.0467332722
  - # 2
    frequency:    1.4462890891
  - # 3
    frequency:    1.9866926010
  - # 4
    frequency:    2.3362511176
  - # 5
    frequency:    2.8296969253
  - # 6
    frequency:    2.9588104155

- q-position: [    0.3450000,    0.1725000,    0.5175000 ]
  distance:    0.1196407
  band:
  - # 1
    frequency:    1.0517288879
  - # 2
    frequency:    1.4420685484
  - # 3
    frequency:    1.9769287164
  - # 4
    frequency:    2.3390767942
  - # 5
    frequency:    2.8256472924
  - # 6
    frequency:    2.9565758240

- q-position: [    0.3500000,    0.1750000,    0.5250000 ]
  distance:    0.1213747
  band:
  - # 1
    frequency:    1.0560728064
  - # 2
    frequency:    1.4353743011
  - # 3
    frequency:    1.9684718609
  - # 4
    frequency:    2.3421659530
  - # 5
    frequency:    2.8200234172
  - # 6
    frequency:    2.9549806927

- q-position: [    0.3550000,    0.1775000,    0.5325000 ]
  distance:    0.1231086
  band:
  - # 1
    frequency:    1.0597467384
  - # 2
    frequency:    1.4262779369
  - # 3
    frequency:    1.9613897012
  - # 4
    frequency:    2.3454897830
  - # 5
    frequency:    2.8128342466
  - # 6
    frequency:    2.9539518634

- q-position: [    0.3600000,    0.1800000,    0.5400000 ]
  distance:    0.1248425
  band:
  - # 1
    frequency:    1.0627386014
  - # 2
    frequency:    1.4149145050
  - # 3
    frequency:    1.9556850213
  - # 4
    frequency:    2.3490164976
  - # 5
    frequency:    2.8041207328
  - # 6
    frequency:    2.9533982006

- q-position: [    0.3650000,    0.1825000,    0.5475000 ]
  distance:    0.1265764
  band:
  - # 1
    frequency:    1.0650427035
  - # 2
    frequency:    1.4014736640
  - # 3
    frequency:    1.9513046411
  - # 4
    frequency:    2.3527120007
  - # 5
    frequency:    2.7939482757
  - # 6
    frequency:    2.9532187954

- q-position: [    0.3700000,    0.1850000,    0.5550000 ]
  distance:    0.1283104
  band:
  - # 1
    frequency:    1.0666598663
  - # 2
    frequency:    1.3861862058
  - # 3
    frequency:    1.9481530225
  - # 4
    frequency:    2.3565405433
  - # 5
    frequency:    2.7823986246
  - # 6
    frequency:    2.9533115291

- q-position: [    0.3750000,    0.1875000,    0.5625000 ]
  distance:    0.1300443
  band:
  - # 1
    frequency:    1.0675974880
  - # 2
    frequency:    1.3693087195
  - # 3
    frequency:    1.9461077439
  - # 4
    frequency:    2.3604653627
  - # 5
    frequency:    2.7695635065
  - # 6
    frequency:    2.9535797655

- q-position: [    0.3800000,    0.1900000,    0.5700000 ]
  distance:    0.1317782
  band:
  - # 1
    frequency:    1.0678695476
  - # 2
    frequency:    1.3511090137
  - # 3
    frequency:    1.9450341813
  - # 4
    frequency:    2.3644492913
  - # 5
    frequency:    2.7555406923
  - # 6
    frequency:    2.9539364906

- q-position: [    0.3850000,    0.1925000,    0.5775000 ]
  distance:    0.1335121
  band:
  - # 1
    frequency:    1.0674965513
  - # 2
    frequency:    1.3318540743
  - # 3
    frequency:    1.9447975825
  - # 4
    frequency:    2.3684553264
  - # 5
    frequency:    2.7404321648
  - # 6
    frequency:    2.9543062565

- q-position: [    0.3900000,    0.1950000,    0.5850000 ]
  distance:    0.1352460
  band:
  - # 1
    frequency:    1.0665054207
  - # 2
    frequency:    1.3118013101
  - # 3
    frequency:    1.9452717530
  - # 4
    frequency:    2.3724471538
  - # 5
    frequency:    2.7243436867
  - # 6
    frequency:    2.9546256465

- q-position: [    0.3950000,    0.1975000,    0.5925000 ]
  distance:    0.1369800
  band:
  - # 1
    frequency:    1.0649293213
  - # 2
    frequency:    1.2911930110
  - # 3
    frequency:    1.9463443999
  - # 4
    frequency:    2.3763896186
  - # 5
    frequency:    2.7073851225
  - # 6
    frequency:    2.9548429202

- q-position: [    0.4000000,    0.2000000,    0.6000000 ]
  distance:    0.1387139
  band:
  - # 1
    frequency:    1.0628074301
  - # 2
    frequency:    1.2702534748
  - # 3
    frequency:    1.9479196573
  - # 4
    frequency:    2.3802491396
  - # 5
    frequency:    2.6896710669
  - # 6
    frequency:    2.9549172930

- q-position: [    0.4050000,    0.2025000,    0.6075000 ]
  distance:    0.1404478
  band:
  - # 1
    frequency:    1.0601846393
  - # 2
    frequency:    1.2491880964
  - # 3
    frequency:    1.9499184770
  - # 4
    frequency:    2.3839940639
  - # 5
    frequency:    2.6713215264
  - # 6
    frequency:    2.9548181144

- q-position: [    0.4100000,    0.2050000,    0.6150000 ]
  distance:    0.1421817
  band:
  - # 1
    frequency:    1.0571111934
  - # 2
    frequency:    1.2281837524
  - # 3
    frequency:    1.9522775302
  - # 4
    frequency:    2.3875949605
  - # 5
    frequency:    2.6524625315
  - # 6
    frequency:    2.9545240736

- q-position: [    0.4150000,    0.2075000,    0.6225000 ]
  distance:    0.1439157
  band:
  - # 1
    frequency:    1.0536422555
  - # 2
    frequency:    1.2074099474
  - # 3
    frequency:    1.9549471372
  - # 4
    frequency:    2.3910248537
  - # 5
    frequency:    2.6332266428
  - # 6
    frequency:    2.9540224797

- q-position: [    0.4200000,    0.2100000,    0.6300000 ]
  distance:    0.1456496
  band:
  - # 1
    frequency:    1.0498374012
  - # 2
    frequency:    1.1870203329
  - # 3
    frequency:    1.9578885970
  - # 4
    frequency:    2.3942593965
  - # 5
    frequency:    2.6137533532
  - # 6
    frequency:    2.9533086233

- q-position: [    0.4250000,    0.2125000,    0.6375000 ]
  distance:    0.1473835
  band:
  - # 1
    frequency:    1.0457600350
  - # 2
    frequency:    1.1671543406
  - # 3
    frequency:    1.9610711626
  - # 4
    frequency:    2.3972769878
  - # 5
    frequency:    2.5941894081
  - # 6
    frequency:    2.9523852070

- q-position: [    0.4300000,    0.2150000,    0.6450000 ]
  distance:    0.1491174
  band:
  - # 1
    frequency:    1.0414767298
  - # 2
    frequency:    1.1479387707
  - # 3
    frequency:    1.9644688174
  - # 4
    frequency:    2.4000588347
  - # 5
    frequency:    2.5746890658
  - # 6
    frequency:    2.9512618270

- q-position: [    0.4350000,    0.2175000,    0.6525000 ]
  distance:    0.1508514
  band:
  - # 1
    frequency:    1.0370564869
  - # 2
    frequency:    1.1294892467
  - # 3
    frequency:    1.9680569507
  - # 4
    frequency:    2.4025889663
  - # 5
    frequency:    2.5554143171
  - # 6
    frequency:    2.9499544877

- q-position: [    0.4400000,    0.2200000,    0.6600000 ]
  distance:    0.1525853
  band:
  - # 1
    frequency:    1.0325699201
  - # 2
    frequency:    1.1119114903
  - # 3
    frequency:    1.9718090073
  - # 4
    frequency:    2.4048542007
  - # 5
    frequency:    2.5365350582
  - # 6
    frequency:    2.9484851336

- q-position: [    0.4450000,    0.2225000,    0.6675000 ]
  distance:    0.1543192
  band:
  - # 1
    frequency:    1.0280883673
  - # 2
    frequency:    1.0953024025
  - # 3
    frequency:    1.9756931944
  - # 4
    frequency:    2.4068440731
  - # 5
    frequency:    2.5182291869
  - # 6
    frequency:    2.9468811857

- q-position: [    0.4500000,    0.2250000,    0.6750000 ]
  distance:    0.1560531
  band:
  - # 1
    frequency:    1.0236829379
  - # 2
    frequency:    1.0797509493
  - # 3
    frequency:    1.9796693607
  - # 4
    frequency:    2.4085507273
  - # 5
    frequency:    2.5006825381
  - # 6
    frequency:    2.9451750742

- q-position: [    0.4550000,    0.2275000,    0.6825000 ]
  distance:    0.1577871
  band:
  - # 1
    frequency:    1.0194235068
  - # 2
    frequency:    1.0653388638
  - # 3