14.400
  29.92301  -0.00000   0.00000   0.00000  29.92301   0.00000   0.00000   0.00000  29.92301
   5.85585   0.00000   0.00000   0.00000   5.85585   0.00000   0.00000   0.00000   5.85585
  -5.85463   0.00000   0.00000   0.00000  -5.85462   0.00000   0.00000   0.00000  -5.85463
