128  
2    

1    
  0.0000000000000000   0.0070710678118655   0.0070710678118655
  -0.0000000000   -0.0194301400   -0.0194301400
  -0.0000000000    0.0028553100    0.0028553100
  -0.0000000000    0.0005895700    0.0005895700
  -0.0000000000    0.0028282900    0.0028282900
   0.0027733000   -0.0002015300    0.0000727800
   0.0001717200    0.0001338100    0.0003084500
  -0.0001718100    0.0003070500    0.0001345800
  -0.0027613800    0.0000759400   -0.0001997600
   0.0003818800   -0.0000545200    0.0002077100
  -0.0000007700   -0.0000377900   -0.0000373900
  -0.0003818800    0.0002077100   -0.0000545200
   0.0000007700   -0.0000373900   -0.0000377900
   0.0027613800   -0.0001997600    0.0000759400
  -0.0027733000    0.0000727800   -0.0002015300
  -0.0001717200    0.0003084500    0.0001338100
   0.0001718100    0.0001345800    0.0003070500
   0.0027733000    0.0000727800   -0.0002015300
   0.0001717200    0.0003084500    0.0001338100
  -0.0001718100    0.0001345800    0.0003070500
  -0.0027613800   -0.0001997600    0.0000759400
   0.0002350700    0.0000715900    0.0000715900
  -0.0000001600    0.0000903900    0.0000903900
  -0.0002332200    0.0000721500    0.0000721500
  -0.0000098800    0.0003020100    0.0003020100
   0.0000617400   -0.0001003300    0.0000728900
  -0.0000629000    0.0000742800   -0.0000995400
  -0.0003767400    0.0002810000   -0.0000457700
   0.0003789000   -0.0000457700    0.0002794100
  -0.0000000000   -0.0026907500   -0.0026952200
  -0.0000000000    0.0041952400    0.0003055600
  -0.0000000000    0.0006590000    0.0006570000
  -0.0000000000    0.0002984600    0.0042039300
   0.0003818800    0.0002077100   -0.0000545200
  -0.0000007700   -0.0000373900   -0.0000377900
  -0.0003818800   -0.0000545200    0.0002077100
   0.0000007700   -0.0000377900   -0.0000373900
   0.0000617400    0.0000728900   -0.0001003300
  -0.0000629000   -0.0000995400    0.0000742800
  -0.0003767400   -0.0000457700    0.0002810000
   0.0003789000    0.0002794100   -0.0000457700
  -0.0000000000   -0.0001741400   -0.0001741400
  -0.0000000000   -0.0000957000   -0.0000957000
  -0.0000000000    0.0010723600    0.0010723600
  -0.0000000000   -0.0000995500   -0.0000995500
   0.0000629000    0.0000742800   -0.0000995400
   0.0003767400    0.0002810000   -0.0000457700
  -0.0003789000   -0.0000457700    0.0002794100
  -0.0000617400   -0.0001003300    0.0000728900
   0.0027613800    0.0000759400   -0.0001997600
  -0.0027733000   -0.0002015300    0.0000727800
  -0.0001717200    0.0001338100    0.0003084500
   0.0001718100    0.0003070500    0.0001345800
  -0.0000000000   -0.0026952200   -0.0026907500
  -0.0000000000    0.0003055600    0.0041952400
  -0.0000000000    0.0006570000    0.0006590000
  -0.0000000000    0.0042039300    0.0002984600
   0.0000629000   -0.0000995400    0.0000742800
   0.0003767400   -0.0000457700    0.0002810000
  -0.0003789000    0.0002794100   -0.0000457700
  -0.0000617400    0.0000728900   -0.0001003300
   0.0002332200    0.0000721500    0.0000721500
   0.0000098800    0.0003020100    0.0003020100
  -0.0002350700    0.0000715900    0.0000715900
   0.0000001600    0.0000903900    0.0000903900
  -0.0003995000   -0.0002116500   -0.0002116500
  -0.0000000500   -0.0001798500   -0.0001798500
   0.0003965100   -0.0002102400   -0.0002102400
  -0.0000154000    0.0006250500    0.0006250500
  -0.0000830800   -0.0000201900   -0.0000966700
   0.0000833100   -0.0000966900   -0.0000205800
   0.0006759300   -0.0001121400    0.0000112800
  -0.0006798000    0.0000112000   -0.0001106400
   0.0000012300    0.0001866500    0.0001874300
   0.0004407800   -0.0003359100    0.0000111800
  -0.0000006400   -0.0001571300   -0.0001563800
  -0.0004427900    0.0000113200   -0.0003383900
  -0.0000000000    0.0061316900    0.0006180200
  -0.0000000000   -0.0010167400   -0.0005526900
  -0.0000000000   -0.0005536300   -0.0010134100
  -0.0000000000    0.0006315200    0.0058128000
  -0.0000830800   -0.0000966700   -0.0000201900
   0.0000833100   -0.0000205800   -0.0000966900
   0.0006759300    0.0000112800   -0.0001121400
  -0.0006798000   -0.0001106400    0.0000112000
   0.0000001200   -0.0000134800   -0.0000134800
   0.0000924200   -0.0000645700   -0.0000645700
   0.0000030300   -0.0003210900   -0.0003210900
  -0.0000933200   -0.0000632000   -0.0000632000
  -0.0000000000    0.0003383400    0.0003293600
  -0.0000000000   -0.0018138900   -0.0003216300
  -0.0000000000   -0.0003205700   -0.0018167600
  -0.0000000000    0.0003314800    0.0003430300
  -0.0004407800   -0.0003359100    0.0000111800
   0.0000006400   -0.0001571300   -0.0001563800
   0.0004427900    0.0000113200   -0.0003383900
  -0.0000012300    0.0001866500    0.0001874300
   0.0000012300    0.0001874300    0.0001866500
   0.0004407800    0.0000111800   -0.0003359100
  -0.0000006400   -0.0001563800   -0.0001571300
  -0.0004427900   -0.0003383900    0.0000113200
  -0.0000000000    0.0003293600    0.0003383400
  -0.0000000000   -0.0003216300   -0.0018138900
  -0.0000000000   -0.0018167600   -0.0003205700
  -0.0000000000    0.0003430300    0.0003314800
  -0.0000924200   -0.0000645700   -0.0000645700
  -0.0000030300   -0.0003210900   -0.0003210900
   0.0000933200   -0.0000632000   -0.0000632000
  -0.0000001200   -0.0000134800   -0.0000134800
  -0.0006759300   -0.0001121400    0.0000112800
   0.0006798000    0.0000112000   -0.0001106400
   0.0000830800   -0.0000201900   -0.0000966700
  -0.0000833100   -0.0000966900   -0.0000205800
  -0.0000000000    0.0006180200    0.0061316900
  -0.0000000000   -0.0005526900   -0.0010167400
  -0.0000000000   -0.0010134100   -0.0005536300
  -0.0000000000    0.0058128000    0.0006315200
  -0.0004407800    0.0000111800   -0.0003359100
   0.0000006400   -0.0001563800   -0.0001571300
   0.0004427900   -0.0003383900    0.0000113200
  -0.0000012300    0.0001874300    0.0001866500
  -0.0006759300    0.0000112800   -0.0001121400
   0.0006798000   -0.0001106400    0.0000112000
   0.0000830800   -0.0000966700   -0.0000201900
  -0.0000833100   -0.0000205800   -0.0000966900
   0.0000154000    0.0006250500    0.0006250500
   0.0003995000   -0.0002116500   -0.0002116500
   0.0000000500   -0.0001798500   -0.0001798500
  -0.0003965100   -0.0002102400   -0.0002102400

65   
  0.0000000000000000   0.0070710678118655   0.0070710678118655
  -0.0003964400   -0.0002110700   -0.0002110700
   0.0000047200    0.0006245900    0.0006245900
   0.0003984200   -0.0002095900   -0.0002095900
   0.0000006600   -0.0001795300   -0.0001795300
   0.0000000000    0.0058164900    0.0006406200
   0.0000000000    0.0006079100    0.0061288700
   0.0000000000   -0.0007893900   -0.0007809800
   0.0000000000   -0.0007768900   -0.0007887800
   0.0000007200    0.0001860200    0.0001880100
  -0.0006782800    0.0000112000   -0.0003366300
  -0.0000011100   -0.0001556000   -0.0001566200
   0.0006770600   -0.0003377700    0.0000113600
  -0.0000828600   -0.0000215100   -0.0000963600
  -0.0004414800    0.0000115300   -0.0001132400
   0.0004418500   -0.0001095700    0.0000110000
   0.0000832200   -0.0000965800   -0.0000210300
   0.0000000000    0.0006406200    0.0058164900
   0.0000000000    0.0061288700    0.0006079100
   0.0000000000   -0.0007809800   -0.0007893900
   0.0000000000   -0.0007887800   -0.0007768900
  -0.0000047200    0.0006245900    0.0006245900
  -0.0003984200   -0.0002095900   -0.0002095900
  -0.0000006600   -0.0001795300   -0.0001795300
   0.0003964400   -0.0002110700   -0.0002110700
  -0.0004418500    0.0000110000   -0.0001095700
  -0.0000832200   -0.0000210300   -0.0000965800
   0.0000828600   -0.0000963600   -0.0000215100
   0.0004414800   -0.0001132400    0.0000115300
  -0.0006770600    0.0000113600   -0.0003377700
  -0.0000007200    0.0001880100    0.0001860200
   0.0006782800   -0.0003366300    0.0000112000
   0.0000011100   -0.0001566200   -0.0001556000
   0.0000007200    0.0001880100    0.0001860200
  -0.0006782800   -0.0003366300    0.0000112000
  -0.0000011100   -0.0001566200   -0.0001556000
   0.0006770600    0.0000113600   -0.0003377700
  -0.0004418500   -0.0001095700    0.0000110000
  -0.0000832200   -0.0000965800   -0.0000210300
   0.0000828600   -0.0000215100   -0.0000963600
   0.0004414800    0.0000115300   -0.0001132400
  -0.0000925500   -0.0000631700   -0.0000631700
   0.0000000700   -0.0000134500   -0.0000134500
   0.0000933200   -0.0000631900   -0.0000631900
   0.0000050700   -0.0003219100   -0.0003219100
   0.0000000000    0.0005651500    0.0001034000
   0.0000000000    0.0001056300    0.0005674100
   0.0000000000   -0.0018185800   -0.0003209900
   0.0000000000   -0.0003229000   -0.0018108000
  -0.0000828600   -0.0000963600   -0.0000215100
  -0.0004414800   -0.0001132400    0.0000115300
   0.0004418500    0.0000110000   -0.0001095700
   0.0000832200   -0.0000210300   -0.0000965800
  -0.0006770600   -0.0003377700    0.0000113600
  -0.0000007200    0.0001860200    0.0001880100
   0.0006782800    0.0000112000   -0.0003366300
   0.0000011100   -0.0001556000   -0.0001566200
   0.0000000000    0.0001034000    0.0005651500
   0.0000000000    0.0005674100    0.0001056300
   0.0000000000   -0.0003209900   -0.0018185800
   0.0000000000   -0.0018108000   -0.0003229000
  -0.0000000700   -0.0000134500   -0.0000134500
  -0.0000933200   -0.0000631900   -0.0000631900
  -0.0000050700   -0.0003219100   -0.0003219100
   0.0000925500   -0.0000631700   -0.0000631700
   0.0000000000   -0.0249480900   -0.0249480900
   0.0000000000    0.0012550300    0.0012550300
   0.0000000000    0.0003044600    0.0003044600
   0.0000000000    0.0012270400    0.0012270400
   0.0009436800   -0.0000399900    0.0003002500
   0.0001255700    0.0001346300    0.0002203400
  -0.0001244800    0.0002199600    0.0001349900
  -0.0009393300    0.0002978100   -0.0000391800
   0.0002348900    0.0000191700    0.0000692700
   0.0000003700    0.0000094000    0.0000101900
  -0.0002348900    0.0000692700    0.0000191700
  -0.0000003700    0.0000101900    0.0000094000
   0.0009393300   -0.0000391800    0.0002978100
  -0.0009436800    0.0003002500   -0.0000399900
  -0.0001255700    0.0002203400    0.0001346300
   0.0001244800    0.0001349900    0.0002199600
   0.0009436800    0.0003002500   -0.0000399900
   0.0001255700    0.0002203400    0.0001346300
  -0.0001244800    0.0001349900    0.0002199600
  -0.0009393300   -0.0000391800    0.0002978100
   0.0001622700    0.0000980800    0.0000980800
   0.0000002000    0.0000953700    0.0000953700
  -0.0001613900    0.0000979600    0.0000979600
  -0.0000146100    0.0002551900    0.0002551900
   0.0000366800   -0.0000270900    0.0000588000
  -0.0000368600    0.0000578600   -0.0000269000
  -0.0003259700    0.0005258400    0.0002264400
   0.0003248600    0.0002276900    0.0005247900
   0.0000000000   -0.0006444900   -0.0006405500
   0.0000000000    0.0044193800    0.0002573800
   0.0000000000    0.0008524300    0.0008490000
   0.0000000000    0.0002530400    0.0044040100
   0.0002348900    0.0000692700    0.0000191700
   0.0000003700    0.0000101900    0.0000094000
  -0.0002348900    0.0000191700    0.0000692700
  -0.0000003700    0.0000094000    0.0000101900
   0.0000366800    0.0000588000   -0.0000270900
  -0.0000368600   -0.0000269000    0.0000578600
  -0.0003259700    0.0002264400    0.0005258400
   0.0003248600    0.0005247900    0.0002276900
   0.0000000000   -0.0001656200   -0.0001656200
   0.0000000000    0.0001990300    0.0001990300
   0.0000000000    0.0010754700    0.0010754700
   0.0000000000    0.0002008100    0.0002008100
   0.0000368600    0.0000578600   -0.0000269000
   0.0003259700    0.0005258400    0.0002264400
  -0.0003248600    0.0002276900    0.0005247900
  -0.0000366800   -0.0000270900    0.0000588000
   0.0009393300    0.0002978100   -0.0000391800
  -0.0009436800   -0.0000399900    0.0003002500
  -0.0001255700    0.0001346300    0.0002203400
   0.0001244800    0.0002199600    0.0001349900
   0.0000000000   -0.0006405500   -0.0006444900
   0.0000000000    0.0002573800    0.0044193800
   0.0000000000    0.0008490000    0.0008524300
   0.0000000000    0.0044040100    0.0002530400
   0.0000368600   -0.0000269000    0.0000578600
   0.0003259700    0.0002264400    0.0005258400
  -0.0003248600    0.0005247900    0.0002276900
  -0.0000366800    0.0000588000   -0.0000270900
   0.0001613900    0.0000979600    0.0000979600
   0.0000146100    0.0002551900    0.0002551900
  -0.0001622700    0.0000980800    0.0000980800
  -0.0000002000    0.0000953700    0.0000953700
