mesh: [    48,    48,    48 ]
nqpoint: 2769   
natom:   2      
phonon:
- q-position: [    0.0000000,    0.0000000,    0.0000000 ]
  weight: 1    
  band:
  - # 1
    frequency:    -0.0024960021
  - # 2
    frequency:    -0.0024960021
  - # 3
    frequency:    -0.0024960021
  - # 4
    frequency:     1.3556719504
  - # 5
    frequency:     1.3556719504
  - # 6
    frequency:     1.3556719504

- q-position: [    0.0208333,    0.0000000,    0.0000000 ]
  weight: 8    
  band:
  - # 1
    frequency:     0.1260798924
  - # 2
    frequency:     0.1260798924
  - # 3
    frequency:     0.1723191937
  - # 4
    frequency:     1.3781718021
  - # 5
    frequency:     1.3781718021
  - # 6
    frequency:     3.3798585775

- q-position: [    0.0416667,    0.0000000,    0.0000000 ]
  weight: 8    
  band:
  - # 1
    frequency:     0.2484118986
  - # 2
    frequency:     0.2484118986
  - # 3
    frequency:     0.3428704672
  - # 4
    frequency:     1.4430859365
  - # 5
    frequency:     1.4430859365
  - # 6
    frequency:     3.3852925326

- q-position: [    0.0625000,    0.0000000,    0.0000000 ]
  weight: 8    
  band:
  - # 1
    frequency:     0.3646082957
  - # 2
    frequency:     0.3646082957
  - # 3
    frequency:     0.5099059293
  - # 4
    frequency:     1.5434049310
  - # 5
    frequency:     1.5434049310
  - # 6
    frequency:     3.3943900888

- q-position: [    0.0833333,    0.0000000,    0.0000000 ]
  weight: 8    
  band:
  - # 1
    frequency:     0.4741209025
  - # 2
    frequency:     0.4741209025
  - # 3
    frequency:     0.6718711421
  - # 4
    frequency:     1.6695928862
  - # 5
    frequency:     1.6695928862
  - # 6
    frequency:     3.4071546684

- q-position: [    0.1041667,    0.0000000,    0.0000000 ]
  weight: 8    
  band:
  - # 1
    frequency:     0.5775320776
  - # 2
    frequency:     0.5775320776
  - # 3
    frequency:     0.8274368776
  - # 4
    frequency:     1.8117164586
  - # 5
    frequency:     1.8117164586
  - # 6
    frequency:     3.4234866855

- q-position: [    0.1250000,    0.0000000,    0.0000000 ]
  weight: 8    
  band:
  - # 1
    frequency:     0.6757465641
  - # 2
    frequency:     0.6757465641
  - # 3
    frequency:     0.9755668141
  - # 4
    frequency:     1.9609168488
  - # 5
    frequency:     1.9609168488
  - # 6
    frequency:     3.4431044330

- q-position: [    0.1458333,    0.0000000,    0.0000000 ]
  weight: 8    
  band:
  - # 1
    frequency:     0.7695360498
  - # 2
    frequency:     0.7695360498
  - # 3
    frequency:     1.1155717782
  - # 4
    frequency:     2.1099994000
  - # 5
    frequency:     2.1099994000
  - # 6
    frequency:     3.4654734622

- q-position: [    0.1666667,    0.0000000,    0.0000000 ]
  weight: 8    
  band:
  - # 1
    frequency:     0.8594246678
  - # 2
    frequency:     0.8594246678
  - # 3
    frequency:     1.2471493234
  - # 4
    frequency:     2.2534399344
  - # 5
    frequency:     2.2534399344
  - # 6
    frequency:     3.4897594944

- q-position: [    0.1875000,    0.0000000,    0.0000000 ]
  weight: 8    
  band:
  - # 1
    frequency:     0.9457317722
  - # 2
    frequency:     0.9457317722
  - # 3
    frequency:     1.3704054948
  - # 4
    frequency:     2.3871615584
  - # 5
    frequency:     2.3871615584
  - # 6
    frequency:     3.5148155288

- q-position: [    0.2083333,    0.0000000,    0.0000000 ]
  weight: 8    
  band:
  - # 1
    frequency:     1.0286456833
  - # 2
    frequency:     1.0286456833
  - # 3
    frequency:     1.4858554581
  - # 4
    frequency:     2.5082822353
  - # 5
    frequency:     2.5082822353
  - # 6
    frequency:     3.5392073973

- q-position: [    0.2291667,    0.0000000,    0.0000000 ]
  weight: 8    
  band:
  - # 1
    frequency:     1.1082793259
  - # 2
    frequency:     1.1082793259
  - # 3
    frequency:     1.5943994564
  - # 4
    frequency:     2.6149038663
  - # 5
    frequency:     2.6149038663
  - # 6
    frequency:     3.5612753843

- q-position: [    0.2500000,    0.0000000,    0.0000000 ]
  weight: 8    
  band:
  - # 1
    frequency:     1.1846984259
  - # 2
    frequency:     1.1846984259
  - # 3
    frequency:     1.6972702987
  - # 4
    frequency:     2.7059521256
  - # 5
    frequency:     2.7059521256
  - # 6
    frequency:     3.5792244417

- q-position: [    0.2708333,    0.0000000,    0.0000000 ]
  weight: 8    
  band:
  - # 1
    frequency:     1.2579260411
  - # 2
    frequency:     1.2579260411
  - # 3
    frequency:     1.7959489309
  - # 4
    frequency:     2.7810567487
  - # 5
    frequency:     2.7810567487
  - # 6
    frequency:     3.5912330189

- q-position: [    0.2916667,    0.0000000,    0.0000000 ]
  weight: 8    
  band:
  - # 1
    frequency:     1.3279293323
  - # 2
    frequency:     1.3279293323
  - # 3
    frequency:     1.8920464973
  - # 4
    frequency:     2.8404595758
  - # 5
    frequency:     2.8404595758
  - # 6
    frequency:     3.5955706087

- q-position: [    0.3125000,    0.0000000,    0.0000000 ]
  weight: 8    
  band:
  - # 1
    frequency:     1.3945935822
  - # 2
    frequency:     1.3945935822
  - # 3
    frequency:     1.9871551322
  - # 4
    frequency:     2.8849401967
  - # 5
    frequency:     2.8849401967
  - # 6
    frequency:     3.5907161644

- q-position: [    0.3333333,    0.0000000,    0.0000000 ]
  weight: 8    
  band:
  - # 1
    frequency:     1.4576875242
  - # 2
    frequency:     1.4576875242
  - # 3
    frequency:     2.0826746264
  - # 4
    frequency:     2.9157518946
  - # 5
    frequency:     2.9157518946
  - # 6
    frequency:     3.5754730363

- q-position: [    0.3541667,    0.0000000,    0.0000000 ]
  weight: 8    
  band:
  - # 1
    frequency:     1.5168240887
  - # 2
    frequency:     1.5168240887
  - # 3
    frequency:     2.1796253267
  - # 4
    frequency:     2.9345622118
  - # 5
    frequency:     2.9345622118
  - # 6
    frequency:     3.5490812629

- q-position: [    0.3750000,    0.0000000,    0.0000000 ]
  weight: 8    
  band:
  - # 1
    frequency:     1.5714222634
  - # 2
    frequency:     1.5714222634
  - # 3
    frequency:     2.2784541895
  - # 4
    frequency:     2.9433922411
  - # 5
    frequency:     2.9433922411
  - # 6
    frequency:     3.5113369552

- q-position: [    0.3958333,    0.0000000,    0.0000000 ]
  weight: 8    
  band:
  - # 1
    frequency:     1.6206793550
  - # 2
    frequency:     1.6206793550
  - # 3
    frequency:     2.3788225944
  - # 4
    frequency:     2.9445463069
  - # 5
    frequency:     2.9445463069
  - # 6
    frequency:     3.4627471769

- q-position: [    0.4166667,    0.0000000,    0.0000000 ]
  weight: 8    
  band:
  - # 1
    frequency:     1.6635684840
  - # 2
    frequency:     1.6635684840
  - # 3
    frequency:     2.4793139810
  - # 4
    frequency:     2.9405191343
  - # 5
    frequency:     2.9405191343
  - # 6
    frequency:     3.4047941971

- q-position: [    0.4375000,    0.0000000,    0.0000000 ]
  weight: 8    
  band:
  - # 1
    frequency:     1.6988818264
  - # 2
    frequency:     1.6988818264
  - # 3
    frequency:     2.5768706880
  - # 4
    frequency:     2.9338627615
  - # 5
    frequency:     2.9338627615
  - # 6
    frequency:     3.3405030631

- q-position: [    0.4583333,    0.0000000,    0.0000000 ]
  weight: 8    
  band:
  - # 1
    frequency:     1.7253403233
  - # 2
    frequency:     1.7253403233
  - # 3
    frequency:     2.6654581001
  - # 4
    frequency:     2.9269958820
  - # 5
    frequency:     2.9269958820
  - # 6
    frequency:     3.2758087457

- q-position: [    0.4791667,    0.0000000,    0.0000000 ]
  weight: 8    
  band:
  - # 1
    frequency:     1.7417757787
  - # 2
    frequency:     1.7417757787
  - # 3
    frequency:     2.7331113708
  - # 4
    frequency:     2.9219534333
  - # 5
    frequency:     2.9219534333
  - # 6
    frequency:     3.2225555205

- q-position: [    0.5000000,    0.0000000,    0.0000000 ]
  weight: 4    
  band:
  - # 1
    frequency:     1.7473554203
  - # 2
    frequency:     1.7473554203
  - # 3
    frequency:     2.7599667110
  - # 4
    frequency:     2.9201100216
  - # 5
    frequency:     2.9201100216
  - # 6
    frequency:     3.2005121217

- q-position: [    0.0208333,    0.0208333,    0.0000000 ]
  weight: 6    
  band:
  - # 1
    frequency:     0.1282092738
  - # 2
    frequency:     0.1282092738
  - # 3
    frequency:     0.2210629333
  - # 4
    frequency:     1.3821152522
  - # 5
    frequency:     1.3821152522
  - # 6
    frequency:     3.3830127424

- q-position: [    0.0416667,    0.0208333,    0.0000000 ]
  weight: 24   
  band:
  - # 1
    frequency:     0.2175426623
  - # 2
    frequency:     0.2251157176
  - # 3
    frequency:     0.3508523564
  - # 4
    frequency:     1.4289453311
  - # 5
    frequency:     1.4325884849
  - # 6
    frequency:     3.3880783804

- q-position: [    0.0625000,    0.0208333,    0.0000000 ]
  weight: 24   
  band:
  - # 1
    frequency:     0.3241194563
  - # 2
    frequency:     0.3399259169
  - # 3
    frequency:     0.4987439960
  - # 4
    frequency:     1.5132782898
  - # 5
    frequency:     1.5231573822
  - # 6
    frequency:     3.3954550036

- q-position: [    0.0833333,    0.0208333,    0.0000000 ]
  weight: 24   
  band:
  - # 1
    frequency:     0.4298520398
  - # 2
    frequency:     0.4512995001
  - # 3
    frequency:     0.6509458479
  - # 4
    frequency:     1.6266099308
  - # 5
    frequency:     1.6426929780
  - # 6
    frequency:     3.4061287068

- q-position: [    0.1041667,    0.0208333,    0.0000000 ]
  weight: 24   
  band:
  - # 1
    frequency:     0.5311459751
  - # 2
    frequency:     0.5570649999
  - # 3
    frequency:     0.8015809283
  - # 4
    frequency:     1.7593242105
  - # 5
    frequency:     1.7810199469
  - # 6
    frequency:     3.4202145147

- q-position: [    0.1250000,    0.0208333,    0.0000000 ]
  weight: 24   
  band:
  - # 1
    frequency:     0.6275867767
  - # 2
    frequency:     0.6577857566
  - # 3
    frequency:     0.9475247232
  - # 4
    frequency:     1.9023504335
  - # 5
    frequency:     1.9289195592
  - # 6
    frequency:     3.4375649654

- q-position: [    0.1458333,    0.0208333,    0.0000000 ]
  weight: 24   
  band:
  - # 1
    frequency:     0.7195501147
  - # 2
    frequency:     0.7542371714
  - # 3
    frequency:     1.0869944617
  - # 4
    frequency:     2.0480370928
  - # 5
    frequency:     2.0787340282
  - # 6
    frequency:     3.4577897107

- q-position: [    0.1666667,    0.0208333,    0.0000000 ]
  weight: 24   
  band:
  - # 1
    frequency:     0.8075086863
  - # 2
    frequency:     0.8469482398
  - # 3
    frequency:     1.2190341842
  - # 4
    frequency:     2.1903613523
  - # 5
    frequency:     2.2244778565
  - # 6
    frequency:     3.4802124766

- q-position: [    0.1875000,    0.0208333,    0.0000000 ]
  weight: 24   
  band:
  - # 1
    frequency:     0.8918571332
  - # 2
    frequency:     0.9361935432
  - # 3
    frequency:     1.3433064588
  - # 4
    frequency:     2.3247978442
  - # 5
    frequency:     2.3616572647
  - # 6
    frequency:     3.5038465831

- q-position: [    0.2083333,    0.0208333,    0.0000000 ]
  weight: 24   
  band:
  - # 1
    frequency:     0.9729028894
  - # 2
    frequency:     1.0220763739
  - # 3
    frequency:     1.4599922061
  - # 4
    frequency:     2.4480887142
  - # 5
    frequency:     2.4870220700
  - # 6
    frequency:     3.5274056426

- q-position: [    0.2291667,    0.0208333,    0.0000000 ]
  weight: 24   
  band:
  - # 1
    frequency:     1.0508920962
  - # 2
    frequency:     1.1046032868
  - # 3
    frequency:     1.5697218421
  - # 4
    frequency:     2.5580257019
  - # 5
    frequency:     2.5983475190
  - # 6
    frequency:     3.5493510492

- q-position: [    0.2500000,    0.0208333,    0.0000000 ]
  weight: 24   
  band:
  - # 1
    frequency:     1.1260276868
  - # 2
    frequency:     1.1837290089
  - # 3
    frequency:     1.6735048563
  - # 4
    frequency:     2.6532748489
  - # 5
    frequency:     2.6942674803
  - # 6
    frequency:     3.5679706696

- q-position: [    0.2708333,    0.0208333,    0.0000000 ]
  weight: 24   
  band:
  - # 1
    frequency:     1.1984702335
  - # 2
    frequency:     1.2593732448
  - # 3
    frequency:     1.7726421647
  - # 4
    frequency:     2.7332418363
  - # 5
    frequency:     2.7741521005
  - # 6
    frequency:     3.5814795838

- q-position: [    0.2916667,    0.0208333,    0.0000000 ]
  weight: 24   
  band:
  - # 1
    frequency:     1.2683227723
  - # 2
    frequency:     1.3314150062
  - # 3
    frequency:     1.8686137880
  - # 4
    frequency:     2.7979674893
  - # 5
    frequency:     2.8380169931
  - # 6
    frequency:     3.5881331954

- q-position: [    0.3125000,    0.0208333,    0.0000000 ]
  weight: 24   
  band:
  - # 1
    frequency:     1.3356032044
  - # 2
    frequency:     1.3996696600
  - # 3
    frequency:     1.9629400082
  - # 4
    frequency:     2.8480433822
  - # 5
    frequency:     2.8864525206
  - # 6
    frequency:     3.5863446370

- q-position: [    0.3333333,    0.0208333,    0.0000000 ]
  weight: 24   
  band:
  - # 1
    frequency:     1.4002079812
  - # 2
    frequency:     1.4638537175
  - # 3
    frequency:     2.0570188295
  - # 4
    frequency:     2.8845399629
  - # 5
    frequency:     2.9205649155
  - # 6
    frequency:     3.5748012287

- q-position: [    0.3541667,    0.0208333,    0.0000000 ]
  weight: 24   
  band:
  - # 1
    frequency:     1.4618708276
  - # 2
    frequency:     1.5235435454
  - # 3
    frequency:     2.1519454136
  - # 4
    frequency:     2.9089416575
  - # 5
    frequency:     2.9419238270
  - # 6
    frequency:     3.5525786832

- q-position: [    0.3750000,    0.0208333,    0.0000000 ]
  weight: 24   
  band:
  - # 1
    frequency:     1.5201211869
  - # 2
    frequency:     1.5781362718
  - # 3
    frequency:     2.2483171533
  - # 4
    frequency:     2.9230840879
  - # 5
    frequency:     2.9525126091
  - # 6
    frequency:     3.5192582933

- q-position: [    0.3958333,    0.0208333,    0.0000000 ]
  weight: 24   
  band:
  - # 1
    frequency:     1.5742495075
  - # 2
    frequency:     1.6268236472
  - # 3
    frequency:     2.3460150065
  - # 4
    frequency:     2.9290873301
  - # 5
    frequency:     2.9546782942
  - # 6
    frequency:     3.4750658194

- q-position: [    0.4166667,    0.0208333,    0.0000000 ]
  weight: 24   
  band:
  - # 1
    frequency:     1.6232907969
  - # 2
    frequency:     1.6685927436
  - # 3
    frequency:     2.4439136326
  - # 4
    frequency:     2.9292757861
  - # 5
    frequency:     2.9510791426
  - # 6
    frequency:     3.4210826669

- q-position: [    0.4375000,    0.0208333,    0.0000000 ]
  weight: 24   
  band:
  - # 1
    frequency:     1.6660434539
  - # 2
    frequency:     1.7022710848
  - # 3
    frequency:     2.5393777048
  - # 4
    frequency:     2.9260703956
  - # 5
    frequency:     2.9446301327
  - # 6
    frequency:     3.3596623238

- q-position: [    0.4583333,    0.0208333,    0.0000000 ]
  weight: 24   
  band:
  - # 1
    frequency:     1.7011440786
  - # 2
    frequency:     1.7266344722
  - # 3
    frequency:     2.6272037126
  - # 4
    frequency:     2.9218357219
  - # 5
    frequency:     2.9384181380
  - # 6
    frequency:     3.2954028498

- q-position: [    0.4791667,    0.0208333,    0.0000000 ]
  weight: 24   
  band:
  - # 1
    frequency:     1.7272134801
  - # 2
    frequency:     1.7405841163
  - # 3
    frequency:     2.6976204983
  - # 4
    frequency:     2.9186701174
  - # 5
    frequency:     2.9351778321
  - # 6
    frequency:     3.2374578762

- q-position: [    0.5000000,    0.0208333,    0.0000000 ]
  weight: 24   
  band:
  - # 1
    frequency:     1.7430655202
  - # 2
    frequency:     1.7433674180
  - # 3
    frequency:     2.7354387376
  - # 4
    frequency:     2.9181505547
  - # 5
    frequency:     2.9344758272
  - # 6
    frequency:     3.2029640043

- q-position: [   -0.4791667,    0.0208333,    0.0000000 ]
  weight: 24   
  band:
  - # 1
    frequency:     1.7346528509
  - # 2
    frequency:     1.7479297007
  - # 3
    frequency:     2.7275909442
  - # 4
    frequency:     2.9210837899
  - # 5
    frequency:     2.9317797780
  - # 6
    frequency:     3.2102498188

- q-position: [   -0.4583333,    0.0208333,    0.0000000 ]
  weight: 24   
  band:
  - # 1
    frequency:     1.7149261721
  - # 2
    frequency:     1.7416053662
  - # 3
    frequency:     2.6773852943
  - # 4
    frequency:     2.9273474956
  - # 5
    frequency:     2.9281533665
  - # 6
    frequency:     3.2547332947

- q-position: [   -0.4375000,    0.0208333,    0.0000000 ]
  weight: 24   
  band:
  - # 1
    frequency:     1.6852337717
  - # 2
    frequency:     1.7244781399
  - # 3
    frequency:     2.5999395987
  - # 4
    frequency:     2.9276474916
  - # 5
    frequency:     2.9358909022
  - # 6
    frequency:     3.3161868773

- q-position: [   -0.4166667,    0.0208333,    0.0000000 ]
  weight: 24   
  band:
  - # 1
    frequency:     1.6469230807
  - # 2
    frequency:     1.6973938128
  - # 3
    frequency:     2.5088209468
  - # 4
    frequency:     2.9293089458
  - # 5
    frequency:     2.9448984570
  - # 6
    frequency:     3.3802786492

- q-position: [   -0.3958333,    0.0208333,    0.0000000 ]
  weight: 24   
  band:
  - # 1
    frequency:     1.6014638886
  - # 2
    frequency:     1.6614531918
  - # 3
    frequency:     2.4120400813
  - # 4
    frequency:     2.9302739614
  - # 5
    frequency:     2.9520504612
  - # 6
    frequency:     3.4397007486

- q-position: [   -0.3750000,    0.0208333,    0.0000000 ]
  weight: 24   
  band:
  - # 1
    frequency:     1.5502452620
  - # 2
    frequency:     1.6178109277
  - # 3
    frequency:     2.3138107071
  - # 4
    frequency:     2.9276426043
  - # 5
    frequency:     2.9547942451
  - # 6
    frequency:     3.4907433238

- q-position: [   -0.3541667,    0.0208333,    0.0000000 ]
  weight: 24   
  band:
  - # 1
    frequency:     1.4944441917
  - # 2
    frequency:     1.5675316308
  - # 3
    frequency:     2.2162207302
  - # 4
    frequency:     2.9187361184
  - # 5
    frequency:     2.9505687392
  - # 6
    frequency:     3.5315286101

- q-position: [   -0.3333333,    0.0208333,    0.0000000 ]
  weight: 24   
  band:
  - # 1
    frequency:     1.4349652182
  - # 2
    frequency:     1.5115148753
  - # 3
    frequency:     2.1200533496
  - # 4
    frequency:     2.9011350436
  - # 5
    frequency:     2.9369670909
  - # 6
    frequency:     3.5612799494

- q-position: [   -0.3125000,    0.0208333,    0.0000000 ]
  weight: 24   
  band:
  - # 1
    frequency:     1.3724333836
  - # 2
    frequency:     1.4504748756
  - # 3
    frequency:     2.0251924767
  - # 4
    frequency:     2.8727164784
  - # 5
    frequency:     2.9118482692
  - # 6
    frequency:     3.5799951604

- q-position: [   -0.2916667,    0.0208333,    0.0000000 ]
  weight: 24   
  band:
  - # 1
    frequency:     1.3072209475
  - # 2
    frequency:     1.3849538303
  - # 3
    frequency:     1.9308759855
  - # 4
    frequency:     2.8316996863
  - # 5
    frequency:     2.8734161431
  - # 6
    frequency:     3.5882676931

- q-position: [   -0.2708333,    0.0208333,    0.0000000 ]
  weight: 24   
  band:
  - # 1
    frequency:     1.2394919157
  - # 2
    frequency:     1.3153514395
  - # 3
    frequency:     1.8359010421
  - # 4
    frequency:     2.7766971453
  - # 5
    frequency:     2.8202819180
  - # 6
    frequency:     3.5871583502

- q-position: [   -0.2500000,    0.0208333,    0.0000000 ]
  weight: 24   
  band:
  - # 1
    frequency:     1.1692524521
  - # 2
    frequency:     1.2419590378
  - # 3
    frequency:     1.7388135405
  - # 4
    frequency:     2.7067707661
  - # 5
    frequency:     2.7515208779
  - # 6
    frequency:     3.5780803447

- q-position: [   -0.2291667,    0.0208333,    0.0000000 ]
  weight: 24   
  band:
  - # 1
    frequency:     1.0963985161
  - # 2
    frequency:     1.1649914881
  - # 3
    frequency:     1.6380845841
  - # 4
    frequency:     2.6214946550
  - # 5
    frequency:     2.6667307612
  - # 6
    frequency:     3.5626843417

- q-position: [   -0.2083333,    0.0208333,    0.0000000 ]
  weight: 24   
  band:
  - # 1
    frequency:     1.0207546290
  - # 2
    frequency:     1.0846126178
  - # 3
    frequency:     1.5322675480
  - # 4
    frequency:     2.5210275133
  - # 5
    frequency:     2.5660977093
  - # 6
    frequency:     3.5427407636

- q-position: [   -0.1875000,    0.0208333,    0.0000000 ]
  weight: 24   
  band:
  - # 1
    frequency:     0.9420994120
  - # 2
    frequency:     1.0009508357
  - # 3
    frequency:     1.4201291969
  - # 4
    frequency:     2.4062003172
  - # 5
    frequency:     2.4504763701
  - # 6
    frequency:     3.5200222386

- q-position: [   -0.1666667,    0.0208333,    0.0000000 ]
  weight: 24   
  band:
  - # 1
    frequency:     0.8601744492
  - # 2
    frequency:     0.9141012174
  - # 3
    frequency:     1.3007522174
  - # 4
    frequency:     2.2786281124
  - # 5
    frequency:     2.3214929134
  - # 6
    frequency:     3.4961926690

- q-position: [   -0.1458333,    0.0208333,    0.0000000 ]
  weight: 24   
  band:
  - # 1
    frequency:     0.7746741323
  - # 2
    frequency:     0.8241097231
  - # 3
    frequency:     1.1736113360
  - # 4
    frequency:     2.1408574339
  - # 5
    frequency:     2.1816823356
  - # 6
    frequency:     3.4727117913

- q-position: [   -0.1250000,    0.0208333,    0.0000000 ]
  weight: 24   
  band:
  - # 1
    frequency:     0.6852190984
  - # 2
    frequency:     0.7309367079
  - # 3
    frequency:     1.0386300166
  - # 4
    frequency:     1.9965596982
  - # 5
    frequency:     2.0346714353
  - # 6
    frequency:     3.4507648484

- q-position: [   -0.1041667,    0.0208333,    0.0000000 ]
  weight: 24   
  band:
  - # 1
    frequency:     0.5913347754
  - # 2
    frequency:     0.6344073869
  - # 3
    frequency:     0.8962313817
  - # 4
    frequency:     1.8507671984
  - # 5
    frequency:     1.8854077702
  - # 6
    frequency:     3.4312251366

- q-position: [   -0.0833333,    0.0208333,    0.0000000 ]
  weight: 24   
  band:
  - # 1
    frequency:     0.4925150520
  - # 2
    frequency:     0.5341939754
  - # 3
    frequency:     0.7474124460
  - # 4
    frequency:     1.7101044317
  - # 5
    frequency:     1.7403936344
  - # 6
    frequency:     3.4146518231

- q-position: [   -0.0625000,    0.0208333,    0.0000000 ]
  weight: 24   
  band:
  - # 1
    frequency:     0.3886172351
  - # 2
    frequency:     0.4299749432
  - # 3
    frequency:     0.5939191767
  - # 4
    frequency:     1.5828754282
  - # 5
    frequency:     1.6077841333
  - # 6
    frequency:     3.4013153524

- q-position: [   -0.0416667,    0.0208333,    0.0000000 ]
  weight: 24   
  band:
  - # 1
    frequency:     0.2813856525
  - # 2
    frequency:     0.3221636449
  - # 3
    frequency:     0.4387908455
  - # 4
    frequency:     1.4787677280
  - # 5
    frequency:     1.4970532681
  - # 6
    frequency:     3.3912220088

- q-position: [   -0.0208333,    0.0208333,    0.0000000 ]
  weight: 12   
  band:
  - # 1
    frequency:     0.1807641535
  - # 2
    frequency:     0.2144776467
  - # 3
    frequency:     0.2886166596
  - # 4
    frequency:     1.4080159861
  - # 5
    frequency:     1.4178707185
  - # 6
    frequency:     3.3840666405

- q-position: [    0.0416667,    0.0416667,    0.0000000 ]
  weight: 6    
  band:
  - # 1
    frequency:     0.2481915642
  - # 2
    frequency:     0.2481915642
  - # 3
    frequency:     0.4408550618
  - # 4
    frequency:     1.4556247957
  - # 5
    frequency:     1.4556247957
  - # 6
    frequency:     3.3964622935

- q-position: [    0.0625000,    0.0416667,    0.0000000 ]
  weight: 24   
  band:
  - # 1
    frequency:     0.3203555083
  - # 2
    frequency:     0.3261784801
  - # 3
    frequency:     0.5604291903
  - # 4
    frequency:     1.5197494278
  - # 5
    frequency:     1.5242310921
  - # 6
    frequency:     3.4043193600

- q-position: [    0.0833333,    0.0416667,    0.0000000 ]
  weight: 24   
  band:
  - # 1
    frequency:     0.4080444538
  - # 2
    frequency:     0.4245271957
  - # 3
    frequency:     0.6918410307
  - # 4
    frequency:     1.6145690644
  - # 5
    frequency:     1.6289856629
  - # 6
    frequency:     3.4126996647

- q-position: [    0.1041667,    0.0416667,    0.0000000 ]
  weight: 24   
  band:
  - # 1
    frequency:     0.4989149701
  - # 2
    frequency:     0.5263236488
  - # 3
    frequency:     0.8275261513
  - # 4
    frequency:     1.7315981850
  - # 5
    frequency:     1.7574123360
  - # 6
    frequency:     3.4230667727

- q-position: [    0.1250000,    0.0416667,    0.0000000 ]
  weight: 24   
  band:
  - # 1
    frequency:     0.5884533816
  - # 2
    frequency:     0.6264192084
  - # 3
    frequency:     0.9630837901
  - # 4
    frequency:     1.8622125090
  - # 5
    frequency:     1.8990683558
  - # 6
    frequency:     3.4359908388

- q-position: [    0.1458333,    0.0416667,    0.0000000 ]
  weight: 24   
  band:
  - # 1
    frequency:     0.6752303221
  - # 2
    frequency:     0.7235952349
  - # 3
    frequency:     1.0955925188
  - # 4
    frequency:     1.9987125339
  - # 5
    frequency:     2.0455600790
  - # 6
    frequency:     3.4515112817

- q-position: [    0.1666667,    0.0416667,    0.0000000 ]
  weight: 24   
  band:
  - # 1
    frequency:     0.7589447998
  - # 2
    frequency:     0.8176866007
  - # 3
    frequency:     1.2231424666
  - # 4
    frequency:     2.1347759389
  - # 5
    frequency:     2.1903378193
  - # 6
    frequency:     3.4692912590

- q-position: [    0.1875000,    0.0416667,    0.0000000 ]
  weight: 24   
  band:
  - # 1
    frequency:     0.8396844868
  - # 2
    frequency:     0.9086994102
  - # 3
    frequency:     1.3446288509
  - # 4
    frequency:     2.2654978451
  - # 5
    frequency:     2.3284301707
  - # 6
    frequency:     3.4886528606

- q-position: [    0.2083333,    0.0416667,    0.0000000 ]
  weight: 24   
  band:
  - # 1
    frequency:     0.9176618660
  - # 2
    frequency:     0.9965988256
  - # 3
    frequency:     1.4596120324
  - # 4
    frequency:     2.3872466265
  - # 5
    frequency:     2.4561647786
  - # 6
    frequency:     3.5085962243

- q-position: [    0.2291667,    0.0416667,    0.0000000 ]
  weight: 24   
  band:
  - # 1
    frequency:     0.9931247967
  - # 2
    frequency:     1.0812936030
  - # 3
    frequency:     1.5682048291
  - # 4
    frequency:     2.4974760722
  - # 5
    frequency:     2.5709321079
  - # 6
    frequency:     3.5278382449

- q-position: [    0.2500000,    0.0416667,    0.0000000 ]
  weight: 24   
  band:
  - # 1
    frequency:     1.0663219587
  - # 2
    frequency:     1.1626594307
  - # 3
    frequency:     1.6709706276
  - # 4
    frequency:     2.5945531045
  - # 5
    frequency:     2.6710093993
  - # 6
    frequency:     3.5448774890

- q-position: [    0.2708333,    0.0416667,    0.0000000 ]
  weight: 24   
  band:
  - # 1
    frequency:     1.1374791028
  - # 2
    frequency:     1.2405533845
  - # 3
    frequency:     1.7688202744
  - # 4
    frequency:     2.6776157001
  - # 5
    frequency:     2.7554381491
  - # 6
    frequency:     3.5580807375

- q-position: [    0.2916667,    0.0416667,    0.0000000 ]
  weight: 24   
  band:
  - # 1
    frequency:     1.2067720174
  - # 2
    frequency:     1.3148069964
  - # 3
    frequency:     1.8628996161
  - # 4
    frequency:     2.7464582152
  - # 5
    frequency:     2.8239408044
  - # 6
    frequency:     3.5657837850

- q-position: [    0.3125000,    0.0416667,    0.0000000 ]
  weight: 24   
  band:
  - # 1
    frequency:     1.2742932684
  - # 2
    frequency:     1.3851964893
  - # 3
    frequency:     1.9544631106
  - # 4
    frequency:     2.8014370154
  - # 5
    frequency:     2.8768620621
  - # 6
    frequency:     3.5664005189

- q-position: [    0.3333333,    0.0416667,    0.0000000 ]
  weight: 24   
  band:
  - # 1
    frequency:     1.3400136355
  - # 2
    frequency:     1.4513944841
  - # 3
    frequency:     2.0447308306
  - # 4
    frequency:     2.8433898453
  - # 5
    frequency:     2.9151231071
  - # 6
    frequency:     3.5585367475

- q-position: [    0.3541667,    0.0416667,    0.0000000 ]
  weight: 24   
  band:
  - # 1
    frequency:     1.4037405743
  - # 2
    frequency:     1.5129134211
  - # 3
    frequency:     2.1347255129
  - # 4
    frequency:     2.8735639363
  - # 5
    frequency:     2.9401821172
  - # 6
    frequency:     3.5411071747

- q-position: [    0.3750000,    0.0416667,    0.0000000 ]
  weight: 24   
  band:
  - # 1
    frequency:     1.4650770439
  - # 2
    frequency:     1.5690563992
  - # 3
    frequency:     2.2250824411
  - # 4
    frequency:     2.8935488631
  - # 5
    frequency:     2.9540002297
  - # 6
    frequency:     3.5134564562

- q-position: [    0.3958333,    0.0416667,    0.0000000 ]
  weight: 24   
  band:
  - # 1
    frequency:     1.5233856971
  - # 2
    frequency:     1.6188933120
  - # 3
    frequency:     2.3158158377
  - # 4
    frequency:     2.9052098746
  - # 5
    frequency:     2.9590175478
  - # 6
    frequency:     3.4754925490

- q-position: [    0.4166667,    0.0416667,    0.0000000 ]
  weight: 24   
  band:
  - # 1
    frequency:     1.5777664352
  - # 2
    frequency:     1.6612781212
  - # 3
    frequency:     2.4060036405
  - # 4
    frequency:     2.9106153772
  - # 5
    frequency:     2.9581477777
  - # 6
    frequency:     3.4278605561

- q-position: [    0.4375000,    0.0416667,    0.0000000 ]
  weight: 24   
  band:
  - # 1
    frequency:     1.6270597727
  - # 2
    frequency:     1.6949194484
  - # 3
    frequency:     2.4933064247
  - # 4
    frequency:     2.9119484581
  - # 5
    frequency:     2.9547932847
  - # 6
    frequency:     3.3722370327

- q-position: [    0.4583333,    0.0416667,    0.0000000 ]
  weight: 24   
  band:
  - # 1