nqpoint: 303    
npath: 3      
natom: 12     
reciprocal_lattice:
- [   0.17774245,   0.00000102,  -0.00178477 ] # a*
- [  -0.00000134,   0.17876241,   0.00000108 ] # b*
- [  -0.00191411,  -0.00000080,   0.17348504 ] # c*
phonon:
- q-position: [    0.5000000,    0.5000000,    0.5000000 ]
  distance:    0.0000000
  band:
  - # 1
    frequency:   -0.6120921267
  - # 2
    frequency:    0.7439187241
  - # 3
    frequency:    1.7471328623
  - # 4
    frequency:    2.0981166300
  - # 5
    frequency:    2.1186909064
  - # 6
    frequency:    2.4136348336
  - # 7
    frequency:    2.4343565428
  - # 8
    frequency:    2.7544434198
  - # 9
    frequency:    2.8049581072
  - # 10
    frequency:    2.9890793113
  - # 11
    frequency:    3.2732062144
  - # 12
    frequency:    4.4749079294
  - # 13
    frequency:    4.6935028127
  - # 14
    frequency:    4.8595517046
  - # 15
    frequency:    5.0829102505
  - # 16
    frequency:    5.7773483360
  - # 17
    frequency:    6.2157782909
  - # 18
    frequency:    7.5463095585
  - # 19
    frequency:   10.5088356313
  - # 20
    frequency:   26.3809591153
  - # 21
    frequency:   27.7491737359
  - # 22
    frequency:   30.6208603594
  - # 23
    frequency:   36.3914030744
  - # 24
    frequency:   37.5224689581
  - # 25
    frequency:   41.3334213325
  - # 26
    frequency:   42.7126830876
  - # 27
    frequency:   42.8544807915
  - # 28
    frequency:   44.4786710122
  - # 29
    frequency:   46.6053690192
  - # 30
    frequency:   47.4125654234
  - # 31
    frequency:   89.2679255080
  - # 32
    frequency:   92.2110906337
  - # 33
    frequency:   92.3240556181
  - # 34
    frequency:   92.5587644644
  - # 35
    frequency:   93.7118708686
  - # 36
    frequency:   96.3216942621

- q-position: [    0.4950000,    0.4950000,    0.4950000 ]
  distance:    0.0015195
  band:
  - # 1
    frequency:   -0.6117189328
  - # 2
    frequency:    0.7444237877
  - # 3
    frequency:    1.7468924691
  - # 4
    frequency:    2.0975348162
  - # 5
    frequency:    2.1191417383
  - # 6
    frequency:    2.4133735958
  - # 7
    frequency:    2.4344836205
  - # 8
    frequency:    2.7542796173
  - # 9
    frequency:    2.8049962027
  - # 10
    frequency:    2.9889757942
  - # 11
    frequency:    3.2730459549
  - # 12
    frequency:    4.4747174845
  - # 13
    frequency:    4.6932970120
  - # 14
    frequency:    4.8594807726
  - # 15
    frequency:    5.0829640462
  - # 16
    frequency:    5.7768859866
  - # 17
    frequency:    6.2153314286
  - # 18
    frequency:    7.5456910408
  - # 19
    frequency:   10.5089447082
  - # 20
    frequency:   26.3810545358
  - # 21
    frequency:   27.7491916402
  - # 22
    frequency:   30.6208601581
  - # 23
    frequency:   36.3913901245
  - # 24
    frequency:   37.5223537150
  - # 25
    frequency:   41.3334121613
  - # 26
    frequency:   42.7126407339
  - # 27
    frequency:   42.8544872191
  - # 28
    frequency:   44.4786630219
  - # 29
    frequency:   46.6053516309
  - # 30
    frequency:   47.4125246040
  - # 31
    frequency:   89.2679311929
  - # 32
    frequency:   92.2110452479
  - # 33
    frequency:   92.3241167212
  - # 34
    frequency:   92.5588209129
  - # 35
    frequency:   93.7118051107
  - # 36
    frequency:   96.3217320021

- q-position: [    0.4900000,    0.4900000,    0.4900000 ]
  distance:    0.0030390
  band:
  - # 1
    frequency:   -0.6105988476
  - # 2
    frequency:    0.7459353327
  - # 3
    frequency:    1.7461739944
  - # 4
    frequency:    2.0959069823
  - # 5
    frequency:    2.1203756197
  - # 6
    frequency:    2.4125909571
  - # 7
    frequency:    2.4348624083
  - # 8
    frequency:    2.7537776012
  - # 9
    frequency:    2.8051212328
  - # 10
    frequency:    2.9886646049
  - # 11
    frequency:    3.2725655739
  - # 12
    frequency:    4.4741453608
  - # 13
    frequency:    4.6926799864
  - # 14
    frequency:    4.8592688902
  - # 15
    frequency:    5.0831246710
  - # 16
    frequency:    5.7754995739
  - # 17
    frequency:    6.2139909980
  - # 18
    frequency:    7.5438357278
  - # 19
    frequency:   10.5092714913
  - # 20
    frequency:   26.3813405482
  - # 21
    frequency:   27.7492453184
  - # 22
    frequency:   30.6208595214
  - # 23
    frequency:   36.3913514457
  - # 24
    frequency:   37.5220082082
  - # 25
    frequency:   41.3333846850
  - # 26
    frequency:   42.7125137650
  - # 27
    frequency:   42.8545064902
  - # 28
    frequency:   44.4786390693
  - # 29
    frequency:   46.6052994919
  - # 30
    frequency:   47.4124021983
  - # 31
    frequency:   89.2679482372
  - # 32
    frequency:   92.2109093348
  - # 33
    frequency:   92.3242995931
  - # 34
    frequency:   92.5589903360
  - # 35
    frequency:   93.7116076611
  - # 36
    frequency:   96.3218450900

- q-position: [    0.4850000,    0.4850000,    0.4850000 ]
  distance:    0.0045584
  band:
  - # 1
    frequency:   -0.6087303475
  - # 2
    frequency:    0.7484424944
  - # 3
    frequency:    1.7449854545
  - # 4
    frequency:    2.0934728016
  - # 5
    frequency:    2.1221499038
  - # 6
    frequency:    2.4112901604
  - # 7
    frequency:    2.4354855845
  - # 8
    frequency:    2.7529072079
  - # 9
    frequency:    2.8053637501
  - # 10
    frequency:    2.9881438565
  - # 11
    frequency:    3.2717662655
  - # 12
    frequency:    4.4731892154
  - # 13
    frequency:    4.6916528719
  - # 14
    frequency:    4.8589187576
  - # 15
    frequency:    5.0833898520
  - # 16
    frequency:    5.7731910048
  - # 17
    frequency:    6.2117574714
  - # 18
    frequency:    7.5407443389
  - # 19
    frequency:   10.5098146392
  - # 20
    frequency:   26.3818164052
  - # 21
    frequency:   27.7493346653
  - # 22
    frequency:   30.6208583509
  - # 23
    frequency:   36.3912875506
  - # 24
    frequency:   37.5214331043
  - # 25
    frequency:   41.3333390148
  - # 26
    frequency:   42.7123024580
  - # 27
    frequency:   42.8545385700
  - # 28
    frequency:   44.4785992090
  - # 29
    frequency:   46.6052126803
  - # 30
    frequency:   47.4121983628
  - # 31
    frequency:   89.2679766108
  - # 32
    frequency:   92.2106836198
  - # 33
    frequency:   92.3246029302
  - # 34
    frequency:   92.5592729645
  - # 35
    frequency:   93.7112779923
  - # 36
    frequency:   96.3220331304

- q-position: [    0.4800000,    0.4800000,    0.4800000 ]
  distance:    0.0060779
  band:
  - # 1
    frequency:   -0.6061108514
  - # 2
    frequency:    0.7519274010
  - # 3
    frequency:    1.7433398867
  - # 4
    frequency:    2.0904375055
  - # 5
    frequency:    2.1242545552
  - # 6
    frequency:    2.4094766363
  - # 7
    frequency:    2.4363410300
  - # 8
    frequency:    2.7516235676
  - # 9
    frequency:    2.8057692217
  - # 10
    frequency:    2.9874104927
  - # 11
    frequency:    3.2706500233
  - # 12
    frequency:    4.4718452214
  - # 13
    frequency:    4.6902175824
  - # 14
    frequency:    4.8584347438
  - # 15
    frequency:    5.0837558465
  - # 16
    frequency:    5.7699634585
  - # 17
    frequency:    6.2086316486
  - # 18
    frequency:    7.5364180713
  - # 19
    frequency:   10.5105719222
  - # 20
    frequency:   26.3824808638
  - # 21
    frequency:   27.7494595057
  - # 22
    frequency:   30.6208564841
  - # 23
    frequency:   36.3911992900
  - # 24
    frequency:   37.5206295128
  - # 25
    frequency:   41.3332753361
  - # 26
    frequency:   42.7120072733
  - # 27
    frequency:   42.8545834006
  - # 28
    frequency:   44.4785435314
  - # 29
    frequency:   46.6050913263
  - # 30
    frequency:   47.4119133583
  - # 31
    frequency:   89.2680162630
  - # 32
    frequency:   92.2103692922
  - # 33
    frequency:   92.3250245878
  - # 34
    frequency:   92.5596691764
  - # 35
    frequency:   93.7108152290
  - # 36
    frequency:   96.3222954660

- q-position: [    0.4750000,    0.4750000,    0.4750000 ]
  distance:    0.0075974
  band:
  - # 1
    frequency:   -0.6027366548
  - # 2
    frequency:    0.7563655150
  - # 3
    frequency:    1.7412548898
  - # 4
    frequency:    2.0869292175
  - # 5
    frequency:    2.1265550285
  - # 6
    frequency:    2.4071579545
  - # 7
    frequency:    2.4374120385
  - # 8
    frequency:    2.7498745532
  - # 9
    frequency:    2.8063905041
  - # 10
    frequency:    2.9864604144
  - # 11
    frequency:    3.2692196464
  - # 12
    frequency:    4.4701081836
  - # 13
    frequency:    4.6883768406
  - # 14
    frequency:    4.8578226948
  - # 15
    frequency:    5.0842175069
  - # 16
    frequency:    5.7658213879
  - # 17
    frequency:    6.2046146763
  - # 18
    frequency:    7.5308585966
  - # 19
    frequency:   10.5115402304
  - # 20
    frequency:   26.3833321882
  - # 21
    frequency:   27.7496195943
  - # 22
    frequency:   30.6208536961
  - # 23
    frequency:   36.3910878492
  - # 24
    frequency:   37.5195989834
  - # 25
    frequency:   41.3331939080
  - # 26
    frequency:   42.7116288538
  - # 27
    frequency:   42.8546409015
  - # 28
    frequency:   44.4784721619
  - # 29
    frequency:   46.6049356127
  - # 30
    frequency:   47.4115475491
  - # 31
    frequency:   89.2680671235
  - # 32
    frequency:   92.2099679747
  - # 33
    frequency:   92.3255616200
  - # 34
    frequency:   92.5601794876
  - # 35
    frequency:   93.7102181534
  - # 36
    frequency:   96.3226311803

- q-position: [    0.4700000,    0.4700000,    0.4700000 ]
  distance:    0.0091169
  band:
  - # 1
    frequency:   -0.5986028356
  - # 2
    frequency:    0.7617260851
  - # 3
    frequency:    1.7387520254
  - # 4
    frequency:    2.0830177240
  - # 5
    frequency:    2.1289737647
  - # 6
    frequency:    2.4043436818
  - # 7
    frequency:    2.4386776781
  - # 8
    frequency:    2.7476094976
  - # 9
    frequency:    2.8072790230
  - # 10
    frequency:    2.9852886448
  - # 11
    frequency:    3.2674787470
  - # 12
    frequency:    4.4679716961
  - # 13
    frequency:    4.6861342169
  - # 14
    frequency:    4.8570896790
  - # 15
    frequency:    5.0847683639
  - # 16
    frequency:    5.7607705238
  - # 17
    frequency:    6.1997080740
  - # 18
    frequency:    7.5240680569
  - # 19
    frequency:   10.5127155856
  - # 20
    frequency:   26.3843681543
  - # 21
    frequency:   27.7498146152
  - # 22
    frequency:   30.6208497023
  - # 23
    frequency:   36.3909547417
  - # 24
    frequency:   37.5183435025
  - # 25
    frequency:   41.3330950629
  - # 26
    frequency:   42.7111680228
  - # 27
    frequency:   42.8547109696
  - # 28
    frequency:   44.4783852594
  - # 29
    frequency:   46.6047457753
  - # 30
    frequency:   47.4111014024
  - # 31
    frequency:   89.2681291024
  - # 32
    frequency:   92.2094816861
  - # 33
    frequency:   92.3262103344
  - # 34
    frequency:   92.5608045382
  - # 35
    frequency:   93.7094852128
  - # 36
    frequency:   96.3230391011

- q-position: [    0.4650000,    0.4650000,    0.4650000 ]
  distance:    0.0106363
  band:
  - # 1
    frequency:   -0.5937031256
  - # 2
    frequency:    0.7679726859
  - # 3
    frequency:    1.7358561191
  - # 4
    frequency:    2.0787382957
  - # 5
    frequency:    2.1314666698
  - # 6
    frequency:    2.4010451715
  - # 7
    frequency:    2.4401132745
  - # 8
    frequency:    2.7447871868
  - # 9
    frequency:    2.8084766512
  - # 10
    frequency:    2.9838895238
  - # 11
    frequency:    3.2654317613
  - # 12
    frequency:    4.4654283382
  - # 13
    frequency:    4.6834941763
  - # 14
    frequency:    4.8562436789
  - # 15
    frequency:    5.0854007219
  - # 16
    frequency:    5.7548178804
  - # 17
    frequency:    6.1939137672
  - # 18
    frequency:    7.5160490594
  - # 19
    frequency:   10.5140931567
  - # 20
    frequency:   26.3855860554
  - # 21
    frequency:   27.7500441821
  - # 22
    frequency:   30.6208441619
  - # 23
    frequency:   36.3908018011
  - # 24
    frequency:   37.5168654884
  - # 25
    frequency:   41.3329792060
  - # 26
    frequency:   42.7106257816
  - # 27
    frequency:   42.8547934801
  - # 28
    frequency:   44.4782830150
  - # 29
    frequency:   46.6045221034
  - # 30
    frequency:   47.4105754871
  - # 31
    frequency:   89.2682020902
  - # 32
    frequency:   92.2089127957
  - # 33
    frequency:   92.3269663554
  - # 34
    frequency:   92.5615450752
  - # 35
    frequency:   93.7086145295
  - # 36
    frequency:   96.3235178048

- q-position: [    0.4600000,    0.4600000,    0.4600000 ]
  distance:    0.0121558
  band:
  - # 1
    frequency:   -0.5880297432
  - # 2
    frequency:    0.7750638192
  - # 3
    frequency:    1.7325945028
  - # 4
    frequency:    2.0741073780
  - # 5
    frequency:    2.1340077291
  - # 6
    frequency:    2.3972753202
  - # 7
    frequency:    2.4416909693
  - # 8
    frequency:    2.7413812080
  - # 9
    frequency:    2.8100102124
  - # 10
    frequency:    2.9822569217
  - # 11
    frequency:    3.2630839626
  - # 12
    frequency:    4.4624699034
  - # 13
    frequency:    4.6804621289
  - # 14
    frequency:    4.8552932441
  - # 15
    frequency:    5.0861057602
  - # 16
    frequency:    5.7479717659
  - # 17
    frequency:    6.1872341274
  - # 18
    frequency:    7.5068046705
  - # 19
    frequency:   10.5156672774
  - # 20
    frequency:   26.3869827092
  - # 21
    frequency:   27.7503078379
  - # 22
    frequency:   30.6208366814
  - # 23
    frequency:   36.3906311719
  - # 24
    frequency:   37.5151677863
  - # 25
    frequency:   41.3328468150
  - # 26
    frequency:   42.7100033066
  - # 27
    frequency:   42.8548882870
  - # 28
    frequency:   44.4781656498
  - # 29
    frequency:   46.6042649403
  - # 30
    frequency:   47.4099704728
  - # 31
    frequency:   89.2682859591
  - # 32
    frequency:   92.2082639749
  - # 33
    frequency:   92.3278246977
  - # 34
    frequency:   92.5624019322
  - # 35
    frequency:   93.7076039125
  - # 36
    frequency:   96.3240656228

- q-position: [    0.4550000,    0.4550000,    0.4550000 ]
  distance:    0.0136753
  band:
  - # 1
    frequency:   -0.5815731805
  - # 2
    frequency:    0.7829535518
  - # 3
    frequency:    1.7289962358
  - # 4
    frequency:    2.0691315395
  - # 5
    frequency:    2.1365803495
  - # 6
    frequency:    2.3930483255
  - # 7
    frequency:    2.4433803110
  - # 8
    frequency:    2.7373817363
  - # 9
    frequency:    2.8118895294
  - # 10
    frequency:    2.9803844616
  - # 11
    frequency:    3.2604414778
  - # 12
    frequency:    4.4590876553
  - # 13
    frequency:    4.6770444811
  - # 14
    frequency:    4.8542471196
  - # 15
    frequency:    5.0868736317
  - # 16
    frequency:    5.7402417979
  - # 17
    frequency:    6.1796720178
  - # 18
    frequency:    7.4963384091
  - # 19
    frequency:   10.5174314688
  - # 20
    frequency:   26.3885544663
  - # 21
    frequency:   27.7506050543
  - # 22
    frequency:   30.6208268202
  - # 23
    frequency:   36.3904452984
  - # 24
    frequency:   37.5132536611
  - # 25
    frequency:   41.3326984386
  - # 26
    frequency:   42.7093019455
  - # 27
    frequency:   42.8549952237
  - # 28
    frequency:   44.4780334133
  - # 29
    frequency:   46.6039746842
  - # 30
    frequency:   47.4092871284
  - # 31
    frequency:   89.2683805626
  - # 32
    frequency:   92.2075381468
  - # 33
    frequency:   92.3287798438
  - # 34
    frequency:   92.5633760051
  - # 35
    frequency:   93.7064508711
  - # 36
    frequency:   96.3246806471

- q-position: [    0.4500000,    0.4500000,    0.4500000 ]
  distance:    0.0151948
  band:
  - # 1
    frequency:   -0.5743219343
  - # 2
    frequency:    0.7915921625
  - # 3
    frequency:    1.7250913421
  - # 4
    frequency:    2.0638124122
  - # 5
    frequency:    2.1391726729
  - # 6
    frequency:    2.3883794619
  - # 7
    frequency:    2.4451488482
  - # 8
    frequency:    2.7327942109
  - # 9
    frequency:    2.8141085730
  - # 10
    frequency:    2.9782657450
  - # 11
    frequency:    3.2575113063
  - # 12
    frequency:    4.4552726039
  - # 13
    frequency:    4.6732486832
  - # 14
    frequency:    4.8531138642
  - # 15
    frequency:    5.0876935522
  - # 16
    frequency:    5.7316389266
  - # 17
    frequency:    6.1712308446
  - # 18
    frequency:    7.4846542390
  - # 19
    frequency:   10.5193784631
  - # 20
    frequency:   26.3902972195
  - # 21
    frequency:   27.7509352320
  - # 22
    frequency:   30.6208140949
  - # 23
    frequency:   36.3902469117
  - # 24
    frequency:   37.5111267903
  - # 25
    frequency:   41.3325346965
  - # 26
    frequency:   42.7085232133
  - # 27
    frequency:   42.8551141041
  - # 28
    frequency:   44.4778865803
  - # 29
    frequency:   46.6036517888
  - # 30
    frequency:   47.4085263207
  - # 31
    frequency:   89.2684857365
  - # 32
    frequency:   92.2067384366
  - # 33
    frequency:   92.3298258248
  - # 34
    frequency:   92.5644682249
  - # 35
    frequency:   93.7051526306
  - # 36
    frequency:   96.3253607386

- q-position: [    0.4450000,    0.4450000,    0.4450000 ]
  distance:    0.0167143
  band:
  - # 1
    frequency:   -0.5662621690
  - # 2
    frequency:    0.8009267765
  - # 3
    frequency:    1.7209100884
  - # 4
    frequency:    2.0581494218
  - # 5
    frequency:    2.1417750513
  - # 6
    frequency:    2.3832848859
  - # 7
    frequency:    2.4469627009
  - # 8
    frequency:    2.7276362275
  - # 9
    frequency:    2.8166483909
  - # 10
    frequency:    2.9758945742
  - # 11
    frequency:    3.2543013425
  - # 12
    frequency:    4.4510157944
  - # 13
    frequency:    4.6690832715
  - # 14
    frequency:    4.8519014739
  - # 15
    frequency:    5.0885538743
  - # 16
    frequency:    5.7221754677
  - # 17
    frequency:    6.1619146139
  - # 18
    frequency:    7.4717565616
  - # 19
    frequency:   10.5215002322
  - # 20
    frequency:   26.3922064150
  - # 21
    frequency:   27.7512977002
  - # 22
    frequency:   30.6207979858
  - # 23
    frequency:   36.3900390160
  - # 24
    frequency:   37.5087912554
  - # 25
    frequency:   41.3323562776
  - # 26
    frequency:   42.7076687879
  - # 27
    frequency:   42.8552447233
  - # 28
    frequency:   44.4777254487
  - # 29
    frequency:   46.6032967643
  - # 30
    frequency:   47.4076890123
  - # 31
    frequency:   89.2686012998
  - # 32
    frequency:   92.2058681254
  - # 33
    frequency:   92.3309563022
  - # 34
    frequency:   92.5656795280
  - # 35
    frequency:   93.7037061498
  - # 36
    frequency:   96.3261035348

- q-position: [    0.4400000,    0.4400000,    0.4400000 ]
  distance:    0.0182337
  band:
  - # 1
    frequency:   -0.5573772932
  - # 2
    frequency:    0.8109019679
  - # 3
    frequency:    1.7164823261
  - # 4
    frequency:    2.0521413033
  - # 5
    frequency:    2.1443786782
  - # 6
    frequency:    2.3777814776
  - # 7
    frequency:    2.4487870867
  - # 8
    frequency:    2.7219340210
  - # 9
    frequency:    2.8194804490
  - # 10
    frequency:    2.9732651724
  - # 11
    frequency:    3.2508204012
  - # 12
    frequency:    4.4463085999
  - # 13
    frequency:    4.6645578989
  - # 14
    frequency:    4.8506170247
  - # 15
    frequency:    5.0894421385
  - # 16
    frequency:    5.7118651483
  - # 17
    frequency:    6.1517279925
  - # 18
    frequency:    7.4576502078
  - # 19
    frequency:   10.5237880182
  - # 20
    frequency:   26.3942770641
  - # 21
    frequency:   27.7516917165
  - # 22
    frequency:   30.6207779431
  - # 23
    frequency:   36.3898248724
  - # 24
    frequency:   37.5062515322
  - # 25
    frequency:   41.3321639394
  - # 26
    frequency:   42.7067405044
  - # 27
    frequency:   42.8553868590
  - # 28
    frequency:   44.4775503364
  - # 29
    frequency:   46.6029101777
  - # 30
    frequency:   47.4067762599
  - # 31
    frequency:   89.2687270547
  - # 32
    frequency:   92.2049306075
  - # 33
    frequency:   92.3321646478
  - # 34
    frequency:   92.5670108234
  - # 35
    frequency:   93.7021081401
  - # 36
    frequency:   96.3269064596

- q-position: [    0.4350000,    0.4350000,    0.4350000 ]
  distance:    0.0197532
  band:
  - # 1
    frequency:   -0.5476474291
  - # 2
    frequency:    0.8214603146
  - # 3
    frequency:    1.7118369081
  - # 4
    frequency:    2.0457869412
  - # 5
    frequency:    2.1469748326
  - # 6
    frequency:    2.3718867253
  - # 7
    frequency:    2.4505867819
  - # 8
    frequency:    2.7157194381
  - # 9
    frequency:    2.8225694908
  - # 10
    frequency:    2.9703724029
  - # 11
    frequency:    3.2470782460
  - # 12
    frequency:    4.4411430107
  - # 13
    frequency:    4.6596833546
  - # 14
    frequency:    4.8492663438
  - # 15
    frequency:    5.0903450981
  - # 16
    frequency:    5.7007231686
  - # 17
    frequency:    6.1406763734
  - # 18
    frequency:    7.4423404307
  - # 19
    frequency:   10.5262323668
  - # 20
    frequency:   26.3965037571
  - # 21
    frequency:   27.7521164667
  - # 22
    frequency:   30.6207533936
  - # 23
    frequency:   36.3896079823
  - # 24
    frequency:   37.5035124807
  - # 25
    frequency:   41.3319585065
  - # 26
    frequency:   42.7057403498
  - # 27
    frequency:   42.8555402725
  - # 28
    frequency:   44.4773615786
  - # 29
    frequency:   46.6024926541
  - # 30
    frequency:   47.4057892120
  - # 31
    frequency:   89.2688627883
  - # 32
    frequency:   92.2039293533
  - # 33
    frequency:   92.3334440220
  - # 34
    frequency:   92.5684629586
  - # 35
    frequency:   93.7003550862
  - # 36
    frequency:   96.3277667329

- q-position: [    0.4300000,    0.4300000,    0.4300000 ]
  distance:    0.0212727
  band:
  - # 1
    frequency:   -0.5370487404
  - # 2
    frequency:    0.8325428966
  - # 3
    frequency:    1.7070011877
  - # 4
    frequency:    2.0390858301
  - # 5
    frequency:    2.1495544368
  - # 6
    frequency:    2.3656186582
  - # 7
    frequency:    2.4523264992
  - # 8
    frequency:    2.7090277518
  - # 9
    frequency:    2.8258755664
  - # 10
    frequency:    2.9672119974
  - # 11
    frequency:    3.2430856194
  - # 12
    frequency:    4.4355119120
  - # 13
    frequency:    4.6544715675
  - # 14
    frequency:    4.8478537221
  - # 15
    frequency:    5.0912487110
  - # 16
    frequency:    5.6887662840
  - # 17
    frequency:    6.1287659446
  - # 18
    frequency:    7.4258328982
  - # 19
    frequency:   10.5288231645
  - # 20
    frequency:   26.3988806773
  - # 21
    frequency:   27.7525710652
  - # 22
    frequency:   30.6207237479
  - # 23
    frequency:   36.3893920688
  - # 24
    frequency:   37.5005793335
  - # 25
    frequency:   41.3317408688
  - # 26
    frequency:   42.7046704562
  - # 27
    frequency:   42.8557047103
  - # 28
    frequency:   44.4771595244
  - # 29
    frequency:   46.6020448770
  - # 30
    frequency:   47.4047291070
  - # 31
    frequency:   89.2690082724
  - # 32
    frequency:   92.2028678777
  - # 33
    frequency:   92.3347874474
  - # 34
    frequency:   92.5700366830
  - # 35
    frequency:   93.6984432682
  - # 36
    frequency:   96.3286813818

- q-position: [    0.4250000,    0.4250000,    0.4250000 ]
  distance:    0.0227922
  band:
  - # 1
    frequency:   -0.5255525788
  - # 2
    frequency:    0.8440897300
  - # 3
    frequency:    1.7020006002
  - # 4
    frequency:    2.0320383200
  - # 5
    frequency:    2.1521077636
  - # 6
    frequency:    2.3589958336
  - # 7
    frequency:    2.4539711642
  - # 8
    frequency:    2.7018963069
  - # 9
    frequency:    2.8293552418
  - # 10
    frequency:    2.9637808079
  - # 11
    frequency:    3.2388542750
  - # 12
    frequency:    4.4294093417
  - # 13
    frequency:    4.6489355945
  - # 14
    frequency:    4.8463816721
  - # 15
    frequency:    5.0921380957
  - # 16
    frequency:    5.6760129125
  - # 17
    frequency:    6.1160037612
  - # 18
    frequency:    7.4081336871
  - # 19
    frequency:   10.5315496768
  - # 20
    frequency:   26.4014016178
  - # 21
    frequency:   27.7530545545
  - # 22
    frequency:   30.6206884077
  - # 23
    frequency:   36.3891810573
  - # 24
    frequency:   37.4974576837
  - # 25
    frequency:   41.3315119805
  - # 26
    frequency:   42.7035330941
  - # 27
    frequency:   42.8558799052
  - # 28
    frequency:   44.4769445339
  - # 29
    frequency:   46.6015675891
  - # 30
    frequency:   47.4035972702
  - # 31
    frequency:   89.2691632651
  - # 32
    frequency:   92.2017497147
  - # 33
    frequency:   92.3361878801
  - # 34
    frequency:   92.5717326116
  - # 35
    frequency:   93.6963687854
  - # 36
    frequency:   96.3296472521

- q-position: [    0.4200000,    0.4200000,    0.4200000 ]
  distance:    0.0243117
  band:
  - # 1
    frequency:   -0.5131243852
  - # 2
    frequency:    0.8560401362
  - # 3
    frequency:    1.6968583231
  - # 4
    frequency:    2.0246457425
  - # 5
    frequency:    2.1546241938
  - # 6
    frequency:    2.3520373875
  - # 7
    frequency:    2.4554860749
  - # 8
    frequency:    2.6943638297
  - # 9
    frequency:    2.8329621455
  - # 10
    frequency:    2.9600771050
  - # 11
    frequency:    3.2343970089
  - # 12
    frequency:    4.4228307237
  - # 13
    frequency:    4.6430895920
  - # 14
    frequency:    4.8448507366
  - # 15
    frequency:    5.0929974452
  - # 16
    frequency:    5.6624832737
  - # 17
    frequency:    6.1023978207
  - # 18
    frequency:    7.3892492768
  - # 19
    frequency:   10.5344005904
  - # 20
    frequency:   26.4040599979
  - # 21
    frequency:   27.7535659058
  - # 22
    frequency:   30.6206467739
  - # 23
    frequency:   36.3889790548
  - # 24
    frequency:   37.4941534715
  - # 25
    frequency:   41.3312728579
  - # 26
    frequency:   42.7023306652
  - # 27
    frequency:   42.8560655779
  - # 28
    frequency:   44.4767169748
  - # 29
    frequency:   46.6010615930
  - # 30
    frequency:   47.4023951114
  - # 31
    frequency:   89.2693275115
  - # 32
    frequency:   92.2005783964
  - # 33
    frequency:   92.3376382745
  - # 34
    frequency:   92.5735511870
  - # 35
    frequency:   93.6941275807
  - # 36
    frequency:   96.3306610204

- q-position: [    0.4150000,    0.4150000,    0.4150000 ]
  distance:    0.0258311
  band:
  - # 1
    frequency:   -0.4997222604
  - # 2
    frequency:    0.8683330467
  - # 3
    frequency:    1.6915950109
  - # 4
    frequency:    2.0169104731
  - # 5
    frequency:    2.1570919623
  - # 6
    frequency:    2.3447631594
  - # 7
    frequency:    2.4568369333
  - # 8
    frequency:    2.6864702173
  - # 9
    frequency:    2.8366470185
  - # 10
    frequency:    2.9561009620
  - # 11
    frequency:    3.2297276887
  - # 12
    frequency:    4.4157730701
  - # 13
    frequency:    4.6369487708
  - # 14
    frequency:    4.8432593483
  - # 15
    frequency:    5.0938098941
  - # 16
    frequency:    5.6481995660
  - # 17
    frequency:    6.0879571404
  - # 18
    frequency:    7.3691865465
  - # 19
    frequency:   10.5373640570
  - # 20
    frequency:   26.4068488820
  - # 21
    frequency:   27.7541040192
  - # 22
    frequency:   30.6205982541
  - # 23
    frequency:   36.3887903282
  - # 24
    frequency:   37.4906729705
  - # 25
    frequency:   41.3310245773
  - # 26
    frequency:   42.7010656943
  - # 27
    frequency:   42.8562614388
  - # 28
    frequency:   44.4764772191
  - # 29
    frequency:   46.6005277512
  - # 30
    frequency:   47.4011241224
  - # 31
    frequency:   89.2695007444
  - # 32
    frequency:   92.1993574381
  - # 33
    frequency:   92.3391316456
  - # 34
    frequency:   92.5754926425
  - # 35
    frequency:   93.6917154669
  - # 36
    frequency:   96.3317192073

- q-position: [    0.4100000,    0.4100000,    0.4100000 ]
  distance:    0.0273506
  band:
  - # 1
    frequency:   -0.4852950774
  - # 2
    frequency:    0.8809072469
  - # 3
    frequency:    1.6862285944
  - # 4
    frequency:    2.0088359616
  - # 5
    frequency:    2.1594978493
  - # 6
    frequency:    2.3371939105
  - # 7
    frequency:    2.4579897374
  - # 8
    frequency:    2.6782566521
  - # 9
    frequency:    2.8403573802
  - # 10
    frequency:    2.9518547793
  - # 11
    frequency:    3.2248612777
  - # 12
    frequency:    4.4082351487
  - # 13
    frequency:    4.6305293374
  - # 14
    frequency:    4.8416037394
  - # 15
    frequency:    5.0945573324
  - # 16
    frequency:    5.6331861929
  - # 17
    frequency:    6.0726918383
  - # 18
    frequency:    7.3479527716
  - # 19
    frequency:   10.5404277394
  - # 20
    frequency:   26.4097609989
  - # 21
    frequency:   27.7546677242
  - # 22
    frequency:   30.6205422709
  - # 23
    frequency:   36.3886192817
  - # 24
    frequency:   37.4870227725
  - # 25
    frequency:   41.3307682732
  - # 26
    frequency:   42.6997408208
  - # 27
    frequency:   42.8564671897
  - # 28
    frequency:   44.4762256402
  - # 29
    frequency:   46.5999669866
  - # 30
    frequency:   47.3997858737
  - # 31
    frequency:   89.2696826858
  - # 32
    frequency:   92.1980903270
  - # 33
    frequency:   92.3406611246
  - # 34
    frequency:   92.5775569667
  - # 35
    frequency:   93.6891281530
  - # 36
    frequency:   96.3328181906

- q-position: [    0.4050000,    0.4050000,    0.4050000 ]
  distance:    0.0288701
  band:
  - # 1
    frequency:   -0.4697799436
  - # 2
    frequency:    0.8937015664
  - # 3
    frequency:    1.6807741374
  - # 4
    frequency:    2.0004267509
  - # 5
    frequency:    2.1618267718
  - # 6
    frequency:    2.3293516626
  - # 7
    frequency:    2.4589105289
  - # 8
    frequency:    2.6697659365
  - # 9
    frequency:    2.8440368401
  - # 10
    frequency:    2.9473440423
  - # 11
    frequency:    3.2198138473
  - # 12
    frequency:    4.4002176135
  - # 13
    frequency:    4.6238484201
  - # 14
    frequency:    4.8398778964
  - # 15
    frequency:    5.0952201568
  - # 16
    frequency:    5.6174700480
  - # 17
    frequency:    6.0566132157
  - # 18
    frequency:    7.3255556248
  - # 19