96   
72   

1    
  0.0099993913857332   0.0000000740534069   0.0001103263769004
  -0.4577452000   -0.0000030700    0.0351627800
   0.0004659600    0.0000014000   -0.0002377500
   0.0000363000   -0.0000005500   -0.0003342000
   0.0003567100    0.0000006200   -0.0003184800
   0.0002256100    0.0000003200   -0.0003097800
   0.0003171000    0.0000011600   -0.0002605800
   0.0002299800    0.0000013400   -0.0003277700
   0.0003022400    0.0000017700   -0.0003019900
   0.1801388100    0.0000005600    0.0410107400
  -0.0005705700    0.0000005700    0.0000447600
  -0.0001541600   -0.0000004000    0.0000621900
  -0.0005472000    0.0000008200    0.0001191400
  -0.0002555600    0.0000017800    0.0000585400
  -0.0004649800   -0.0000002100    0.0000293200
  -0.0002891800    0.0000013000    0.0000626500
  -0.0004113400    0.0000008300    0.0000519100
   0.0456099000   -0.0000001900   -0.0180224100
   0.0008131800   -0.0000000500   -0.0006576200
   0.0008409000   -0.0000005500   -0.0006365500
   0.0008396100   -0.0000002700   -0.0006634800
   0.0007733600   -0.0000003200   -0.0006357100
   0.0009143500   -0.0000001500   -0.0006648300
   0.0008366700   -0.0000002900   -0.0006519600
   0.0008486800   -0.0000000800   -0.0006575600
   0.0960174900   -0.0995437200   -0.0399420900
  -0.0000443100    0.0002014000   -0.0007274100
  -0.0000381400    0.0002300800   -0.0007446700
  -0.0000558300    0.0001257700   -0.0006917600
  -0.0000858200    0.0001459600   -0.0007070600
  -0.0000858400    0.0001591100   -0.0006873800
  -0.0000857400    0.0001512000   -0.0006935600
  -0.0000899300    0.0001443100   -0.0007023700
   0.0960246100    0.0995432500   -0.0399480900
  -0.0000435900   -0.0002069100   -0.0007280000
  -0.0000373400   -0.0002358900   -0.0007453400
  -0.0000550800   -0.0001315300   -0.0006922600
  -0.0000849200   -0.0001511200   -0.0007078900
  -0.0000849800   -0.0001645200   -0.0006879900
  -0.0000847900   -0.0001566000   -0.0006943600
  -0.0000891900   -0.0001498500   -0.0007028400
   0.0195924900    0.0016460300    0.0079735800
   0.0001901800   -0.0001581300    0.0005976600
  -0.0002339400   -0.0003660700    0.0006416900
   0.0000604400    0.0000322400    0.0005810900
  -0.0001021600   -0.0001201300    0.0007124400
   0.0000032100   -0.0001282200    0.0006039900
  -0.0000929800   -0.0002024300    0.0006527900
  -0.0000062900   -0.0001242800    0.0006219800
   0.0195936700   -0.0016427700    0.0079701600
   0.0001922000    0.0001622700    0.0005946300
  -0.0002316200    0.0003685600    0.0006385100
   0.0000629300   -0.0000295800    0.0005779500
  -0.0001003700    0.0001244500    0.0007093400
   0.0000053900    0.0001316100    0.0006007500
  -0.0000904900    0.0002053700    0.0006498700
  -0.0000037800    0.0001269600    0.0006188800
  -0.0000541700   -0.0000007300    0.0056341700
  -0.0005447200   -0.0000006700    0.0000959800
  -0.0006897900   -0.0000011100    0.0000836000
  -0.0006135400   -0.0000010000    0.0001065000
  -0.0007560700   -0.0000004300    0.0001940600
  -0.0006123500   -0.0000007300    0.0001371300
  -0.0007109400   -0.0000010700    0.0001066700
  -0.0006123900   -0.0000010000    0.0001477200
   0.0000889000   -0.0008846900    0.0006993800
   0.0002611000    0.0004075800   -0.0003064900
   0.0000887100    0.0008870300    0.0006999400
   0.0002614600   -0.0004052800   -0.0003069500
  -0.0001853200   -0.0001007000   -0.0003101900
   0.0004511000    0.0002124000    0.0006485600
  -0.0001854600    0.0001029700   -0.0003105600
   0.0004514400   -0.0002101700    0.0006491100
  -0.0007700200    0.0014098200    0.0004272000
   0.0001729200    0.0003115000    0.0003647400
  -0.0007701100   -0.0014001500    0.0004272600
   0.0001735800   -0.0003021800    0.0003647100
   0.0001483600    0.0000826100    0.0001677800
   0.0000473600    0.0000002600    0.0002829900
   0.0001487600   -0.0000726500    0.0001674500
   0.0000472300    0.0000089000    0.0002826100
   0.0006693200    0.0000010900    0.0006772500
   0.0007010500    0.0000009300    0.0004947200
   0.0001451400    0.0000025200    0.0003512500
   0.0000108600    0.0000026800    0.0002474200
  -0.0011736400    0.0000013900   -0.0012391000
  -0.0000312700    0.0000011700    0.0004025200
   0.0001500200    0.0000020600    0.0002100400
   0.0000416800    0.0000020100    0.0002902800
   0.0006918700    0.0002604300    0.0003428200
  -0.0003319400    0.0000095400    0.0001910200
   0.0006926300   -0.0002725200    0.0003430800
  -0.0003319200   -0.0000215100    0.0001917100
   0.0001997300   -0.0002100200   -0.0000863300
  -0.0002482300   -0.0000056400    0.0001768900
   0.0001999700    0.0001982900   -0.0000870100
  -0.0002479600   -0.0000061200    0.0001764800

1    
 -0.0099993913857332  -0.0000000740534069  -0.0001103263769004
   0.4454431300    0.0000066100   -0.0461515200
   0.0000685200    0.0000015000   -0.0003932200
   0.0004968500   -0.0000004100   -0.0003011800
   0.0001731600    0.0000006000   -0.0003195100
   0.0003036500    0.0000001500   -0.0003233300
   0.0002163500    0.0000008700   -0.0003687600
   0.0003015800    0.0000013800   -0.0003036100
   0.0002227500    0.0000018700   -0.0003316200
  -0.1696316100    0.0000009000   -0.0359649900
  -0.0001840400    0.0000006100    0.0000870500
  -0.0005893300   -0.0000002200    0.0000762400
  -0.0001927700    0.0000008800    0.0000222000
  -0.0004836100    0.0000018100    0.0000826300
  -0.0002772100   -0.0000005500    0.0001086800
  -0.0004512800    0.0000016300    0.0000766300
  -0.0003155800    0.0000009800    0.0000937700
  -0.0440392200   -0.0000002100    0.0188267200
   0.0008656400   -0.0000000100   -0.0006435400
   0.0008395600   -0.0000005400   -0.0006695100
   0.0008396700   -0.0000003500   -0.0006456500
   0.0009057200   -0.0000003200   -0.0006692900
   0.0007661000   -0.0000001900   -0.0006389500
   0.0008429200   -0.0000002700   -0.0006525600
   0.0008308700   -0.0000000400   -0.0006508400
  -0.0959676400    0.1028443100    0.0399172000
  -0.0001426500    0.0000830600   -0.0006891000
  -0.0001485900    0.0000601800   -0.0006708500
  -0.0001341100    0.0001659500   -0.0007233200
  -0.0001020400    0.0001430400   -0.0007086600
  -0.0001014400    0.0001285200   -0.0007286300
  -0.0001025000    0.0001374000   -0.0007214100
  -0.0000998100    0.0001461900   -0.0007122500
  -0.0959735600   -0.1028560000    0.0399224200
  -0.0001419800   -0.0000886100   -0.0006897000
  -0.0001478100   -0.0000659000   -0.0006715000
  -0.0001334300   -0.0001717400   -0.0007238000
  -0.0001011400   -0.0001482000   -0.0007094800
  -0.0001006100   -0.0001339200   -0.0007292500
  -0.0001015000   -0.0001427600   -0.0007222500
  -0.0000990500   -0.0001516700   -0.0007126900
  -0.0190486200   -0.0017690100   -0.0065208400
  -0.0002524900   -0.0001363000    0.0006510700
   0.0001752900    0.0000639200    0.0006045300
  -0.0001195000   -0.0003363500    0.0006657600
   0.0000469500   -0.0001769800    0.0005338800
  -0.0000626400   -0.0001730700    0.0006430600
   0.0000327000   -0.0001022400    0.0005951200
  -0.0000497200   -0.0001768700    0.0006257200
  -0.0190454600    0.0017731900   -0.0065235100
  -0.0002504800    0.0001405300    0.0006480400
   0.0001775900   -0.0000613600    0.0006013400
  -0.0001169800    0.0003388600    0.0006626300
   0.0000487000    0.0001813500    0.0005307700
  -0.0000605400    0.0001764900    0.0006398500
   0.0000352700    0.0001051500    0.0005921500
  -0.0000471700    0.0001795400    0.0006226400
  -0.0012030600   -0.0000007600   -0.0052596600
  -0.0007484000   -0.0000006500    0.0001318800
  -0.0006041300   -0.0000011000    0.0001393500
  -0.0006786400   -0.0000010000    0.0001182400
  -0.0005368700   -0.0000004200    0.0000370000
  -0.0006878400   -0.0000007400    0.0000773300
  -0.0005818900   -0.0000010400    0.0001157400
  -0.0006800700   -0.0000010200    0.0000797400
  -0.0000477500    0.0008908600   -0.0003241600
  -0.0002023900   -0.0004044900    0.0006869700
  -0.0000478800   -0.0008884900   -0.0003234200
  -0.0002021400    0.0004067700    0.0006864000
   0.0002300600    0.0001007900    0.0006923300
  -0.0003976000   -0.0002323200   -0.0002770900
   0.0002300400   -0.0000985100    0.0006917400
  -0.0003973600    0.0002346000   -0.0002764500
   0.0009271300   -0.0013871000    0.0001892500
  -0.0000078900   -0.0002990500    0.0002509800
   0.0009269800    0.0013964100    0.0001894800
  -0.0000076000    0.0003086600    0.0002509200
   0.0000224700   -0.0000700500    0.0004504900
   0.0001218300    0.0000126800    0.0003365500
   0.0000229300    0.0000799100    0.0004501400
   0.0001216800   -0.0000033800    0.0003361800
  -0.0005195500    0.0000010000   -0.0001283000
  -0.0005418400    0.0000008300    0.0000775000
   0.0000022800    0.0000025700    0.0001945600
   0.0001346700    0.0000027300    0.0002985900
   0.0013092600    0.0000014000    0.0017750000
   0.0001756400    0.0000012100    0.0001381300
  -0.0000026500    0.0000020500    0.0003345100
   0.0001023400    0.0000020200    0.0002537200
  -0.0007448300   -0.0002646700    0.0000306800
   0.0002800300   -0.0000183300    0.0001828200
  -0.0007439100    0.0002523400    0.0000310700
   0.0002800600    0.0000064600    0.0001836100
  -0.0002592000    0.0002047100    0.0004653700
   0.0001990500   -0.0000015200    0.0002019200
  -0.0002590200   -0.0002164700    0.0004645700
   0.0001991900   -0.0000103100    0.0002015400

1    
 -0.0000000567661165   0.0099999999997353   0.0000000455213471
   0.0084755900   -0.5598599600   -0.0064736600
   0.0003451000    0.0001088600   -0.0003082800
   0.0003415300    0.0000875900   -0.0003115100
   0.0003412900   -0.0000476500   -0.0003117900
   0.0003417700    0.0000210600   -0.0003115800
   0.0003439100    0.0000040300   -0.0003104600
   0.0003426800   -0.0000141000   -0.0003104200
   0.0003417600   -0.0000033400   -0.0003106400
  -0.0010487100    0.0856424200    0.0002248900
  -0.0005145700   -0.0000484400    0.0000107000
  -0.0005077800    0.0001241400    0.0000134600
  -0.0005102700   -0.0002351900    0.0000154800
  -0.0005087900   -0.0000252000    0.0000138900
  -0.0005121000    0.0000061600    0.0000113700
  -0.0005101900    0.0000351900    0.0000132500
  -0.0005091100   -0.0000041900    0.0000137600
   0.0005040500    0.0424861000    0.0006079900
   0.0008578000   -0.0000084900   -0.0006344900
   0.0008578200   -0.0000322000   -0.0006374600
   0.0008579100    0.0000022400   -0.0006381900
   0.0008577100   -0.0000388900   -0.0006371000
   0.0008579500   -0.0000034600   -0.0006360900
   0.0008578100    0.0000308300   -0.0006369500
   0.0008581000    0.0000031300   -0.0006377000
  -0.0952250300    0.2237780900    0.0712319400
  -0.0001330800    0.0001460200   -0.0007202300
  -0.0000945700    0.0001748100   -0.0007023500
  -0.0000286400    0.0001473000   -0.0006887000
  -0.0000652500    0.0001526000   -0.0006845300
  -0.0000750600    0.0001521900   -0.0007051200
  -0.0000858700    0.0001494700   -0.0007307300
  -0.0000713900    0.0001512200   -0.0007070700
   0.0876866300    0.2147227100   -0.0678561900
  -0.0000118100   -0.0001580500   -0.0006940900
  -0.0000526800   -0.0001354300   -0.0007102500
  -0.0001182200   -0.0001634300   -0.0007228100
  -0.0000816000   -0.0001565400   -0.0007283500
  -0.0000704900   -0.0001553400   -0.0007085000
  -0.0000607500   -0.0001595700   -0.0006822600
  -0.0000754500   -0.0001589500   -0.0007054200
   0.0233490700   -0.0053726200    0.0134882000
  -0.0002456400   -0.0001629700    0.0005781500
  -0.0001552600   -0.0002159200    0.0006283500
   0.0001599600    0.0001805100    0.0005417700
   0.0000193700   -0.0000333700    0.0006002200
   0.0000078100   -0.0000632300    0.0005837100
   0.0000114900   -0.0000703000    0.0005617700
   0.0000214600   -0.0000400200    0.0005807300
  -0.0231912600   -0.0052842600   -0.0123994300
   0.0002832900   -0.0000480200    0.0005860300
   0.0001827100   -0.0001045400    0.0005349300
  -0.0001265500    0.0002828700    0.0006199500
   0.0000118300    0.0000716400    0.0005624700
   0.0000225700    0.0000448700    0.0005790100
   0.0000188800    0.0000363000    0.0006017500
   0.0000101700    0.0000651000    0.0005823500
  -0.0006331200    0.0006192700    0.0002345100
  -0.0006708000   -0.0000222600    0.0002327100
  -0.0006721000    0.0000424700    0.0002343000
  -0.0006716100    0.0000089700    0.0002349900
  -0.0006724300    0.0000707700    0.0002339100
  -0.0006710200    0.0000070700    0.0002348300
  -0.0006724200   -0.0000718800    0.0002343400
  -0.0006718100   -0.0000046900    0.0002350200
  -0.0001194200   -0.0000779400    0.0004583800
   0.0004583500    0.0003477700   -0.0004181500
   0.0001547200   -0.0000807600   -0.0000828400
  -0.0004298900    0.0003333500    0.0007784500
   0.0002747200   -0.0000129300   -0.0001037200
  -0.0002057600    0.0000456600    0.0005697200
  -0.0002421000   -0.0000079800    0.0004589600
   0.0002351600    0.0000392100   -0.0001997600
  -0.0000716800    0.0011962700    0.0005894100
   0.0002287700   -0.0001948200    0.0001981300
   0.0001861400    0.0011600500    0.0000449300
  -0.0000946400   -0.0001899400    0.0004330800
   0.0000717800   -0.0000011300    0.0003686200
   0.0000615300    0.0000098200    0.0003846400
   0.0000668600   -0.0000038700    0.0002612900
   0.0000742100    0.0000089700    0.0002455500
   0.0000401600   -0.0003041500    0.0002893100
   0.0000431400    0.0000649900    0.0002804600
   0.0000450900    0.0001490200    0.0002870400
   0.0000439700   -0.0000297300    0.0002857200
   0.0000464300   -0.0001956200    0.0002862800
   0.0000413300    0.0002496900    0.0002890000
   0.0000447900    0.0000097800    0.0002833300
   0.0000433300   -0.0001759300    0.0002840300
   0.0001006100    0.0000431600    0.0000107500
  -0.0001086900   -0.0000010700    0.0001581500
  -0.0001548000    0.0000310100    0.0003095000
   0.0000441000   -0.0000033700    0.0001721100
  -0.0000103400    0.0004795700    0.0005382000
  -0.0001012200   -0.0000062900    0.0001731000
  -0.0000457400    0.0004732500   -0.0002029600
   0.0000365100   -0.0000095700    0.0001609000

1    
  0.0000000567661165  -0.0099999999997353  -0.0000000455213471
   0.0084716200    0.5598605800   -0.0064671100
   0.0003449500   -0.0001072900   -0.0003083900
   0.0003414500   -0.0000864700   -0.0003115800
   0.0003411400    0.0000498700   -0.0003118600
   0.0003415000   -0.0000206100   -0.0003116700
   0.0003437000   -0.0000028600   -0.0003106600
   0.0003425900    0.0000162400   -0.0003105100
   0.0003418100    0.0000053400   -0.0003106200
  -0.0010461800   -0.0856415000    0.0002245700
  -0.0005149900    0.0000485900    0.0000104700
  -0.0005083000   -0.0001225300    0.0000131900
  -0.0005106100    0.0002376800    0.0000153200
  -0.0005092200    0.0000259900    0.0000137000
  -0.0005125300   -0.0000057000    0.0000111700
  -0.0005107200   -0.0000339200    0.0000129900
  -0.0005098900    0.0000063700    0.0000133400
   0.0005059600   -0.0424863300    0.0005980100
   0.0008578700    0.0000082000   -0.0006343600
   0.0008578700    0.0000317700   -0.0006371700
   0.0008579800   -0.0000025500   -0.0006381700
   0.0008577900    0.0000383900   -0.0006369900
   0.0008580200    0.0000030000   -0.0006359900
   0.0008578600   -0.0000311900   -0.0006366600
   0.0008581400   -0.0000035500   -0.0006374200
   0.0876850400   -0.2147385600   -0.0678538900
  -0.0000125500    0.0001526100   -0.0006934300
  -0.0000532000    0.0001297100   -0.0007096200
  -0.0001189900    0.0001581000   -0.0007220400
  -0.0000823500    0.0001510700   -0.0007276300
  -0.0000713200    0.0001500000   -0.0007077600
  -0.0000613900    0.0001539100   -0.0006815800
  -0.0000763200    0.0001534900   -0.0007046900
  -0.0952249600   -0.2237722600    0.0712330800
  -0.0001320800   -0.0001513600   -0.0007208800
  -0.0000936500   -0.0001801200   -0.0007030800
  -0.0000277100   -0.0001525800   -0.0006893900
  -0.0000643000   -0.0001579800   -0.0006852200
  -0.0000740400   -0.0001574700   -0.0007058400
  -0.0000848400   -0.0001547000   -0.0007315000
  -0.0000701900   -0.0001562900   -0.0007078600
  -0.0231929000    0.0052880900   -0.0123958900
   0.0002813000    0.0000519500    0.0005891100
   0.0001803200    0.0001076300    0.0005381100
  -0.0001289100   -0.0002798300    0.0006231500
   0.0000097300   -0.0000677900    0.0005655900
   0.0000204200   -0.0000411500    0.0005822200
   0.0000165600   -0.0000331900    0.0006048600
   0.0000077600   -0.0000621200    0.0005855000
   0.0233519900    0.0053760800    0.0134855300
  -0.0002435500    0.0001666300    0.0005750700
  -0.0001528400    0.0002190400    0.0006252500
   0.0001625300   -0.0001776600    0.0005385800
   0.0000216400    0.0000369900    0.0005971400
   0.0000101400    0.0000667800    0.0005805600
   0.0000138300    0.0000734400    0.0005587400
   0.0000237900    0.0000432000    0.0005776800
  -0.0006337800   -0.0006208200    0.0002344400
  -0.0006707600    0.0000207800    0.0002328000
  -0.0006720700   -0.0000442900    0.0002342900
  -0.0006715200   -0.0000107000    0.0002350600
  -0.0006723400   -0.0000722400    0.0002340200
  -0.0006709500   -0.0000084800    0.0002349300
  -0.0006723800    0.0000700300    0.0002343500
  -0.0006718000    0.0000029500    0.0002349100
   0.0001547600    0.0000831800   -0.0000828100
  -0.0004298700   -0.0003310000    0.0007785900
  -0.0001193700    0.0000804900    0.0004584500
   0.0004585100   -0.0003452100   -0.0004182100
  -0.0002422000    0.0000103400    0.0004590500
   0.0002352600   -0.0000368000   -0.0001997000
   0.0002749500    0.0000154500   -0.0001036600
  -0.0002056900   -0.0000432400    0.0005699300
   0.0001862800   -0.0011512800    0.0000444900
  -0.0000946100    0.0001992500    0.0004330300
  -0.0000716600   -0.0011873600    0.0005897400
   0.0002285600    0.0002043700    0.0001979900
   0.0000668000    0.0000127800    0.0002614300
   0.0000739600   -0.0000001600    0.0002455500
   0.0000718600    0.0000099300    0.0003680900
   0.0000615800   -0.0000012600    0.0003842900
   0.0000401500    0.0003068500    0.0002894200
   0.0000432200   -0.0000620700    0.0002805400
   0.0000452500   -0.0001443500    0.0002871800
   0.0000440600    0.0000349700    0.0002859000
   0.0000464700    0.0001988800    0.0002863300
   0.0000414900   -0.0002473000    0.0002891300
   0.0000448600   -0.0000059700    0.0002834400
   0.0000434000    0.0001806500    0.0002841700
  -0.0001554300   -0.0000427500    0.0003093800
   0.0000442400   -0.0000085900    0.0001714200
   0.0001015100   -0.0000549100    0.0000109000
  -0.0001089200   -0.0000107800    0.0001588700
  -0.0000461300   -0.0004850500   -0.0002021700
   0.0000367200   -0.0000025000    0.0001611200
  -0.0000097200   -0.0004911900    0.0005371200
  -0.0001014900   -0.0000057700    0.0001726800

1    
  0.0001004084305703  -0.0000000594850079   0.0099994958944705
   0.0402836700    0.0000042300   -0.5250476900
   0.0004135200    0.0000007600   -0.0003999200
   0.0003163000    0.0000005700   -0.0004126400
   0.0003380000    0.0000011400   -0.0003778200
   0.0003391000    0.0000002400   -0.0003032600
   0.0003903100    0.0000005900   -0.0003356000
   0.0003232400    0.0000011600   -0.0003062500
   0.0003486700    0.0000010600   -0.0002976900
   0.0387057500   -0.0000005500    0.1027927700
  -0.0006068400    0.0000000200    0.0000404800
  -0.0003968900    0.0000007400   -0.0000086400
  -0.0005128900    0.0000013700    0.0000033400
  -0.0004222100    0.0000004400    0.0000789800
  -0.0005647500    0.0000002700   -0.0000814500
  -0.0004888000    0.0000006000    0.0000055400
  -0.0005328300    0.0000011400    0.0000009200
  -0.0320864700    0.0000034100    0.2867183700
   0.0008649600   -0.0000001500   -0.0006571700
   0.0008526300   -0.0000002100   -0.0006509600
   0.0008614200   -0.0000001500   -0.0006443600
   0.0008657100   -0.0000002400   -0.0006305400
   0.0008350100   -0.0000002300   -0.0006268900
   0.0008645800   -0.0000001700   -0.0006305400
   0.0008601400   -0.0000001900   -0.0006332800
  -0.0335947400    0.0647676300    0.0664474800
   0.0000010500    0.0001947200   -0.0006777500
  -0.0000756300    0.0001230200   -0.0006773900
  -0.0000300500    0.0001300300   -0.0006765000
  -0.0000647600    0.0001125600   -0.0006779100
  -0.0000759300    0.0001373700   -0.0007135000
  -0.0000627900    0.0001559800   -0.0006963700
  -0.0000722900    0.0001545200   -0.0007082400
  -0.0335993800   -0.0647791700    0.0664510800
   0.0000019000   -0.0002001400   -0.0006783800
  -0.0000749200   -0.0001285200   -0.0006780800
  -0.0000292100   -0.0001353200   -0.0006772100
  -0.0000639200   -0.0001180000   -0.0006785900
  -0.0000750200   -0.0001426900   -0.0007142100
  -0.0000619500   -0.0001613800   -0.0006971200
  -0.0000712700   -0.0001597700   -0.0007090000
  -0.0061907700    0.0043244300   -0.0041903500
  -0.0000481200   -0.0000692100    0.0005446100
  -0.0001137400   -0.0002343600    0.0005902300
  -0.0000096500   -0.0001493400    0.0005593800
  -0.0000265700   -0.0001414100    0.0005668300
   0.0000090000   -0.0001112700    0.0005879700
  -0.0000061100   -0.0000469000    0.0005971200
   0.0000301000   -0.0000232000    0.0005878000
  -0.0061879900   -0.0043205800   -0.0041931400
  -0.0000461200    0.0000731100    0.0005415500
  -0.0001113300    0.0002373900    0.0005871000
  -0.0000071500    0.0001522100    0.0005561800
  -0.0000244500    0.0001452400    0.0005637300
   0.0000112100    0.0001149700    0.0005848000
  -0.0000037600    0.0000499700    0.0005940500
   0.0000325100    0.0000262200    0.0005846900
   0.0318725200   -0.0000010000    0.0071440200
  -0.0006051200   -0.0000007200    0.0003554100
  -0.0006574900   -0.0000009400    0.0003275500
  -0.0006495900   -0.0000008700    0.0003033500
  -0.0009414400   -0.0000007100    0.0004331200
  -0.0005443900   -0.0000006800    0.0004147800
  -0.0007293700   -0.0000009400    0.0002155600
  -0.0006626100   -0.0000008900    0.0002399100
   0.0000053200    0.0001689200    0.0007776800
   0.0001050500    0.0003516800    0.0003163700
   0.0000053200   -0.0001664400    0.0007777100
   0.0001052000   -0.0003492600    0.0003162000
  -0.0002532500    0.0001876000   -0.0003591400
   0.0003351600    0.0005680900   -0.0000492700
  -0.0002530600   -0.0001851500   -0.0003591800
   0.0003351400   -0.0005656600   -0.0000491800
  -0.0004651200    0.0013143900    0.0005456800
   0.0004660800    0.0003693600    0.0001978500
  -0.0004651400   -0.0013056000    0.0005461000
   0.0004658700   -0.0003600400    0.0001977200
   0.0001115400   -0.0000509100    0.0002913100
   0.0000574000   -0.0000525300    0.0002578300
   0.0001115300    0.0000596500    0.0002908500
   0.0000574600    0.0000610500    0.0002576100
  -0.0001102500    0.0000012300    0.0009716200
  -0.0003578900    0.0000013200    0.0001276600
   0.0000898500    0.0000025300    0.0004207000
   0.0000031300    0.0000027800    0.0003562800
   0.0010580000    0.0000015500    0.0015861000
  -0.0002319100    0.0000011200    0.0005267800
   0.0000538300    0.0000020500    0.0002130100
   0.0000216100    0.0000025200    0.0002386700
   0.0003859700   -0.0002183100    0.0003385100
  -0.0000703500   -0.0000324900    0.0000854800
   0.0003867300    0.0002065700    0.0003386300
  -0.0000704900    0.0000206100    0.0000861800
   0.0000590800   -0.0002223500    0.0002138300
  -0.0001466600   -0.0000515000    0.0001987800
   0.0000596200    0.0002105500    0.0002129400
  -0.0001468000    0.0000394400    0.0001984300

1    
 -0.0001004084305703   0.0000000594850079  -0.0099994958944705
  -0.0439912300   -0.0000008700    0.5469278000
   0.0001880100    0.0000015400   -0.0002292100
   0.0002842800   -0.0000005300   -0.0002201900
   0.0002613900    0.0000005900   -0.0002572100
   0.0002564400    0.0000001800   -0.0003253400
   0.0002146400    0.0000010200   -0.0002899800
   0.0002787500    0.0000014200   -0.0003205200
   0.0002502700    0.0000017900   -0.0003300500
  -0.0377099400    0.0000018200   -0.1028008300
  -0.0002722200    0.0000006300    0.0000418400
  -0.0004812500   -0.0000002700    0.0000926600
  -0.0003613300    0.0000007500    0.0000839900
  -0.0004437700    0.0000018500    0.0000105100
  -0.0003130100   -0.0000004000    0.0001598900
  -0.0003842700    0.0000015800    0.0000795700
  -0.0003356900    0.0000008900    0.0000860800
   0.0357205600   -0.0000041700   -0.3071226700
   0.0008331300   -0.0000000100   -0.0006320400
   0.0008455200   -0.0000005500   -0.0006417800
   0.0008364100   -0.0000003200   -0.0006495100
   0.0008318900   -0.0000003400   -0.0006613000
   0.0008629400   -0.0000001800   -0.0006639200
   0.0008334300   -0.0000002600   -0.0006613900
   0.0008383100   -0.0000000400   -0.0006616700
   0.0335075200   -0.0643567700   -0.0697074800
  -0.0001689300    0.0001008900   -0.0007364200
  -0.0000929600    0.0001766000   -0.0007359100
  -0.0001395400    0.0001700700   -0.0007364200
  -0.0001046600    0.0001856000   -0.0007338800
  -0.0000924700    0.0001598700   -0.0006995200
  -0.0001062600    0.0001426000   -0.0007153500
  -0.0000979800    0.0001459100   -0.0007032100
   0.0335134600    0.0643565100   -0.0697121900
  -0.0001682400   -0.0001063900   -0.0007370300
  -0.0000922000   -0.0001824400   -0.0007365600
  -0.0001388200   -0.0001758600   -0.0007369300
  -0.0001037300   -0.0001907500   -0.0007347300
  -0.0000916700   -0.0001653400   -0.0007001300
  -0.0001053000   -0.0001479900   -0.0007161300
  -0.0000972400   -0.0001514100   -0.0007036500
   0.0061144300   -0.0044860200    0.0054134300
   0.0000344400   -0.0001349500    0.0006608300
   0.0000985300    0.0000299800    0.0006156700
  -0.0000041100   -0.0000547600    0.0006475300
   0.0000117700   -0.0000613800    0.0006426200
  -0.0000263100   -0.0000956600    0.0006226800
  -0.0000114900   -0.0001604000    0.0006129100
  -0.0000437700   -0.0001801000    0.0006210600
   0.0061161100    0.0044896100    0.0054100600
   0.0000364800    0.0001391300    0.0006577700
   0.0001008300   -0.0000274300    0.0006124700
  -0.0000015800    0.0000573300    0.0006443900
   0.0000135600    0.0000657000    0.0006395000
  -0.0000241700    0.0000990400    0.0006194400
  -0.0000089700    0.0001633500    0.0006099600
  -0.0000412300    0.0001828100    0.0006179700
  -0.0327210200   -0.0000004900   -0.0064817000
  -0.0007120900   -0.0000006600   -0.0000126700
  -0.0006594200   -0.0000011000    0.0000176400
  -0.0006664000   -0.0000010000    0.0000426100
  -0.0003806500   -0.0000004200   -0.0000832200
  -0.0007710100   -0.0000007500   -0.0000720900
  -0.0005883000   -0.0000010400    0.0001276000
  -0.0006533000   -0.0000010000    0.0001079100
   0.0000383000   -0.0001703000   -0.0004019000
  -0.0000676600   -0.0003520600    0.0000612700
   0.0000381300    0.0001726700   -0.0004012700
  -0.0000674100    0.0003543900    0.0000607800
   0.0002861000   -0.0001912000    0.0007294600
  -0.0002806600   -0.0005576500    0.0004226000
   0.0002860200    0.0001934600    0.0007289900
  -0.0002803500    0.0005599100    0.0004231900
   0.0006141300   -0.0012930300    0.0000840100
  -0.0003108300   -0.0003531900    0.0004389300
   0.0006139500    0.0013023200    0.0000841700
  -0.0003104300    0.0003626100    0.0004389600
   0.0000431300    0.0000636400    0.0003297100
   0.0000944100    0.0000637200    0.0003620400
   0.0000435300   -0.0000537800    0.0003294000
   0.0000943400   -0.0000545200    0.0003616600
   0.0002137700    0.0000011000   -0.0003910000
   0.0004755000    0.0000008900    0.0004303800
   0.0000308400    0.0000024800    0.0001384200
   0.0001137300    0.0000026900    0.0002027000
  -0.0009554100    0.0000014400   -0.0010403600
   0.0003528400    0.0000012400    0.0000261300
   0.0000656200    0.0000020100    0.0003428800
   0.0000961700    0.0000019600    0.0003177000
  -0.0004415000    0.0002175500    0.0000116100
   0.0000134400    0.0000242100    0.0002679300
  -0.0004405800   -0.0002297900    0.0000119400
   0.0000134700   -0.0000362100    0.0002686600
  -0.0001139600    0.0002106700    0.0001412900
   0.0000891900    0.0000429000    0.0001580200
  -0.0001137500   -0.0002224000    0.0001404900
   0.0000893500   -0.0000547500    0.0001576600

9    
  0.0099993913857332   0.0000000740534069   0.0001103263769004
   0.1695935400    0.0000010800    0.0349192100
   0.0000683100    0.0000015400   -0.0004059100
   0.0004712400   -0.0000004600   -0.0002046400
   0.0000805400    0.0000005400   -0.0003164700
   0.0003644200    0.0000002100   -0.0002265500
   0.0001631000    0.0000009200   -0.0003652100
   0.0003353300    0.0000013800   -0.0002886700
   0.0002087600    0.0000018200   -0.0003359700
  -0.5102485000   -0.0000049400    0.0270322000
  -0.0002365100    0.0000006300    0.0000833700
  -0.0008062300   -0.0000002400    0.0001186100
  -0.0000849100    0.0000008500    0.0000043000
  -0.0005261900    0.0000018000    0.0000831700
  -0.0002183900   -0.0000005100    0.0001984300
  -0.0004986200    0.0000016700    0.0000299000
  -0.0003174100    0.0000009900    0.0000790600
   0.0052470600   -0.0000002400    0.0011394600
   0.0008430000   -0.0000000100   -0.0006400100
   0.0008427900   -0.0000005500   -0.0006540000
   0.0008407600   -0.0000003600   -0.0006365900
   0.0008754800   -0.0000002900   -0.0006041400
   0.0007664800   -0.0000001800   -0.0006161300
   0.0008526000   -0.0000002900   -0.0006477800
   0.0008295000   -0.0000000700   -0.0006463900
   0.0220176500    0.0029817100    0.0102419700
  -0.0001185000    0.0001647400   -0.0006991700
  -0.0001142600    0.0001003100   -0.0007206500
  -0.0001559900    0.0001468300   -0.0007444200
  -0.0000990500    0.0001541600   -0.0007227700
  -0.0001038600    0.0001189100   -0.0007382900
  -0.0000952500    0.0001369900   -0.0007104000
  -0.0001025800    0.0001412300   -0.0007100400
   0.0220194300   -0.0029878600    0.0102420700
  -0.0001178300   -0.0001702700   -0.0006997600
  -0.0001134800   -0.0001060700   -0.0007213100
  -0.0001553100   -0.0001526500   -0.0007449000
  -0.0000981600   -0.0001593100   -0.0007235600
  -0.0001030400   -0.0001243300   -0.0007389000