natom:   48
displacements:
- atom:    1
  direction:
    [   1.0000000000000000,  1.0000000000000000,  0.0000000000000000 ]
  displacement:
    [   0.0055074840131907,  0.0083467131162180, -0.0000000018866352 ]
- atom:    1
  direction:
    [  -1.0000000000000000, -1.0000000000000000,  0.0000000000000000 ]
  displacement:
    [  -0.0055074840131907, -0.0083467131162180,  0.0000000018866352 ]
- atom:    1
  direction:
    [   0.0000000000000000,  0.0000000000000000,  1.0000000000000000 ]
  displacement:
    [  -0.0000000002243064, -0.0000000021128815,  0.0099999999999998 ]
- atom:    1
  direction:
    [   0.0000000000000000,  0.0000000000000000, -1.0000000000000000 ]
  displacement:
    [   0.0000000002243064,  0.0000000021128815, -0.0099999999999998 ]
- atom:    5
  direction:
    [   1.0000000000000000,  1.0000000000000000,  0.0000000000000000 ]
  displacement:
    [   0.0055074840131907,  0.0083467131162180, -0.0000000018866352 ]
- atom:    5
  direction:
    [  -1.0000000000000000, -1.0000000000000000,  0.0000000000000000 ]
  displacement:
    [  -0.0055074840131907, -0.0083467131162180,  0.0000000018866352 ]
- atom:    5
  direction:
    [   0.0000000000000000,  0.0000000000000000,  1.0000000000000000 ]
  displacement:
    [  -0.0000000002243064, -0.0000000021128815,  0.0099999999999998 ]
- atom:    5
  direction:
    [   0.0000000000000000,  0.0000000000000000, -1.0000000000000000 ]
  displacement:
    [   0.0000000002243064,  0.0000000021128815, -0.0099999999999998 ]
- atom:    9
  direction:
    [   1.0000000000000000,  0.0000000000000000,  0.0000000000000000 ]
  displacement:
    [   0.0100000000000000, -0.0000000005864176, -0.0000000002222566 ]
- atom:    9
  direction:
    [  -1.0000000000000000,  0.0000000000000000,  0.0000000000000000 ]
  displacement:
    [  -0.0100000000000000,  0.0000000005864176,  0.0000000002222566 ]
- atom:    9
  direction:
    [   0.0000000000000000,  1.0000000000000000,  0.0000000000000000 ]
  displacement:
    [  -0.0000000005820563,  0.0099999999999998, -0.0000000021136795 ]
- atom:    9
  direction:
    [   0.0000000000000000, -1.0000000000000000,  0.0000000000000000 ]
  displacement:
    [   0.0000000005820563, -0.0099999999999998,  0.0000000021136795 ]
- atom:    9
  direction:
    [   0.0000000000000000,  0.0000000000000000,  1.0000000000000000 ]
  displacement:
    [  -0.0000000002243064, -0.0000000021128815,  0.0099999999999998 ]
- atom:    9
  direction:
    [   0.0000000000000000,  0.0000000000000000, -1.0000000000000000 ]
  displacement:
    [   0.0000000002243064,  0.0000000021128815, -0.0099999999999998 ]
- atom:   17
  direction:
    [   1.0000000000000000,  1.0000000000000000,  0.0000000000000000 ]
  displacement:
    [   0.0055074840131907,  0.0083467131162180, -0.0000000018866352 ]
- atom:   17
  direction:
    [  -1.0000000000000000, -1.0000000000000000,  0.0000000000000000 ]
  displacement:
    [  -0.0055074840131907, -0.0083467131162180,  0.0000000018866352 ]
- atom:   17
  direction:
    [   0.0000000000000000,  0.0000000000000000,  1.0000000000000000 ]
  displacement:
    [  -0.0000000002243064, -0.0000000021128815,  0.0099999999999998 ]
- atom:   17
  direction:
    [   0.0000000000000000,  0.0000000000000000, -1.0000000000000000 ]
  displacement:
    [   0.0000000002243064,  0.0000000021128815, -0.0099999999999998 ]
- atom:   21
  direction:
    [   1.0000000000000000,  0.0000000000000000,  0.0000000000000000 ]
  displacement:
    [   0.0100000000000000, -0.0000000005864176, -0.0000000002222566 ]
- atom:   21
  direction:
    [  -1.0000000000000000,  0.0000000000000000,  0.0000000000000000 ]
  displacement:
    [  -0.0100000000000000,  0.0000000005864176,  0.0000000002222566 ]
- atom:   21
  direction:
    [   0.0000000000000000,  1.0000000000000000,  0.0000000000000000 ]
  displacement:
    [  -0.0000000005820563,  0.0099999999999998, -0.0000000021136795 ]
- atom:   21
  direction:
    [   0.0000000000000000, -1.0000000000000000,  0.0000000000000000 ]
  displacement:
    [   0.0000000005820563, -0.0099999999999998,  0.0000000021136795 ]
- atom:   21
  direction:
    [   0.0000000000000000,  0.0000000000000000,  1.0000000000000000 ]
  displacement:
    [  -0.0000000002243064, -0.0000000021128815,  0.0099999999999998 ]
- atom:   21
  direction:
    [   0.0000000000000000,  0.0000000000000000, -1.0000000000000000 ]
  displacement:
    [   0.0000000002243064,  0.0000000021128815, -0.0099999999999998 ]
- atom:   29
  direction:
    [   1.0000000000000000,  1.0000000000000000,  0.0000000000000000 ]
  displacement:
    [   0.0055074840131907,  0.0083467131162180, -0.0000000018866352 ]
- atom:   29
  direction:
    [  -1.0000000000000000, -1.0000000000000000,  0.0000000000000000 ]
  displacement:
    [  -0.0055074840131907, -0.0083467131162180,  0.0000000018866352 ]
- atom:   29
  direction:
    [   0.0000000000000000,  0.0000000000000000,  1.0000000000000000 ]
  displacement:
    [  -0.0000000002243064, -0.0000000021128815,  0.0099999999999998 ]
- atom:   29
  direction:
    [   0.0000000000000000,  0.0000000000000000, -1.0000000000000000 ]
  displacement:
    [   0.0000000002243064,  0.0000000021128815, -0.0099999999999998 ]
- atom:   33
  direction:
    [   1.0000000000000000,  0.0000000000000000,  0.0000000000000000 ]
  displacement:
    [   0.0100000000000000, -0.0000000005864176, -0.0000000002222566 ]
- atom:   33
  direction:
    [   0.0000000000000000,  1.0000000000000000,  0.0000000000000000 ]
  displacement:
    [  -0.0000000005820563,  0.0099999999999998, -0.0000000021136795 ]
- atom:   33
  direction:
    [   0.0000000000000000,  0.0000000000000000,  1.0000000000000000 ]
  displacement:
    [  -0.0000000002243064, -0.0000000021128815,  0.0099999999999998 ]
- atom:   37
  direction:
    [   1.0000000000000000,  1.0000000000000000,  0.0000000000000000 ]
  displacement:
    [   0.0055074840131907,  0.0083467131162180, -0.0000000018866352 ]
- atom:   37
  direction:
    [  -1.0000000000000000, -1.0000000000000000,  0.0000000000000000 ]
  displacement:
    [  -0.0055074840131907, -0.0083467131162180,  0.0000000018866352 ]
- atom:   37
  direction:
    [   0.0000000000000000,  0.0000000000000000,  1.0000000000000000 ]
  displacement:
    [  -0.0000000002243064, -0.0000000021128815,  0.0099999999999998 ]
- atom:   37
  direction:
    [   0.0000000000000000,  0.0000000000000000, -1.0000000000000000 ]
  displacement:
    [   0.0000000002243064,  0.0000000021128815, -0.0099999999999998 ]
- atom:   41
  direction:
    [   1.0000000000000000,  0.0000000000000000,  0.0000000000000000 ]
  displacement:
    [   0.0100000000000000, -0.0000000005864176, -0.0000000002222566 ]
- atom:   41
  direction:
    [  -1.0000000000000000,  0.0000000000000000,  0.0000000000000000 ]
  displacement:
    [  -0.0100000000000000,  0.0000000005864176,  0.0000000002222566 ]
- atom:   41
  direction:
    [   0.0000000000000000,  1.0000000000000000,  0.0000000000000000 ]
  displacement:
    [  -0.0000000005820563,  0.0099999999999998, -0.0000000021136795 ]
- atom:   41
  direction:
    [   0.0000000000000000, -1.0000000000000000,  0.0000000000000000 ]
  displacement:
    [   0.0000000005820563, -0.0099999999999998,  0.0000000021136795 ]
- atom:   41
  direction:
    [   0.0000000000000000,  0.0000000000000000,  1.0000000000000000 ]
  displacement:
    [  -0.0000000002243064, -0.0000000021128815,  0.0099999999999998 ]
- atom:   41
  direction:
    [   0.0000000000000000,  0.0000000000000000, -1.0000000000000000 ]
  displacement:
    [   0.0000000002243064,  0.0000000021128815, -0.0099999999999998 ]
lattice:
- [    8.354481415798725,  -0.000000489921500,  -0.000000185683888 ]
- [   -0.000000736964763,  12.661399650445633,  -0.000002676214140 ]
- [   -0.000000202843474,  -0.000001910708756,   9.043141853099632 ]
atoms:
- symbol: C  # 1
  position: [   0.03269725490854,  0.24999998790527,  0.93728764276677 ]
- symbol: C  # 2
  position: [   0.96730277191938,  0.74999999987474,  0.06271225181323 ]
- symbol: C  # 3
  position: [   0.46730281821726,  0.74999998208747,  0.43728768329316 ]
- symbol: C  # 4
  position: [   0.53269720327567,  0.25000000445394,  0.56271222112825 ]
- symbol: N  # 5
  position: [   0.95880369182497,  0.24999997887886,  0.08609555778477 ]
- symbol: N  # 6
  position: [   0.04119631245369,  0.74999999527260,  0.91390432917581 ]
- symbol: N  # 7
  position: [   0.54119639610864,  0.74999999114166,  0.58609558851410 ]
- symbol: N  # 8
  position: [   0.45880362124496,  0.24999999021669,  0.41390432047496 ]
- symbol: H  # 9
  position: [   0.99531399466414,  0.31671692673265,  0.14531414076077 ]
- symbol: H  # 10
  position: [   0.00468599770349,  0.68328304546883,  0.85468575268992 ]
- symbol: H  # 11
  position: [   0.50468609553081,  0.68328305671181,  0.64531412384427 ]
- symbol: H  # 12
  position: [   0.49531392688604,  0.31671692639908,  0.35468577871044 ]
- symbol: H  # 13
  position: [   0.00468603874872,  0.81671692903943,  0.85468579788865 ]
- symbol: H  # 14
  position: [   0.99531397525067,  0.18328305276522,  0.14531409527783 ]
- symbol: H  # 15
  position: [   0.49531388396874,  0.18328305263969,  0.35468572949944 ]
- symbol: H  # 16
  position: [   0.50468612909686,  0.81671694019771,  0.64531416235889 ]
- symbol: H  # 17
  position: [   0.83378496840449,  0.24999997188129,  0.07877047181221 ]
- symbol: H  # 18
  position: [   0.16621503203116,  0.75000000968142,  0.92122939836707 ]
- symbol: H  # 19
  position: [   0.66621512065249,  0.75000000202744,  0.57877047518603 ]
- symbol: H  # 20
  position: [   0.33378490209729,  0.24999997793475,  0.42122942363339 ]
- symbol: H  # 21
  position: [   0.99385303196668,  0.32123743775217,  0.87770975969112 ]
- symbol: H  # 22
  position: [   0.00614698762320,  0.67876254989806,  0.12229014206104 ]
- symbol: H  # 23
  position: [   0.50614701779647,  0.67876252823105,  0.37770972517266 ]
- symbol: H  # 24
  position: [   0.49385301764284,  0.32123746105757,  0.62229018356150 ]
- symbol: H  # 25
  position: [   0.00614701472441,  0.82123746213386,  0.12229020194117 ]
- symbol: H  # 26
  position: [   0.99385302243864,  0.17876252746060,  0.87770968810997 ]
- symbol: H  # 27
  position: [   0.49385296954120,  0.17876254683505,  0.62229011594200 ]
- symbol: H  # 28
  position: [   0.50614705835140,  0.82123743743398,  0.37770979198995 ]
- symbol: H  # 29
  position: [   0.16369354824045,  0.25000000763293,  0.94965361171785 ]
- symbol: H  # 30
  position: [   0.83630647764421,  0.74999997818441,  0.05034628476813 ]
- symbol: H  # 31
  position: [   0.33630652977948,  0.74999997892254,  0.44965368798956 ]
- symbol: H  # 32
  position: [   0.66369349645955,  0.25000001061304,  0.55034621255347 ]
- symbol: Pb # 33
  position: [   0.99999993489028,  0.00000002520495,  0.50000045067068 ]
- symbol: Pb # 34
  position: [   0.50000003307329,  0.99999995606651,  0.00000041238118 ]
- symbol: Pb # 35
  position: [   0.00000013326060,  0.49999993917225,  0.50000025553175 ]
- symbol: Pb # 36
  position: [   0.49999989029520,  0.50000013299706,  0.00000035415949 ]
- symbol: I  # 37
  position: [   0.03837363731350,  0.25000006732900,  0.51160026041969 ]
- symbol: I  # 38
  position: [   0.96162645309626,  0.75000011664110,  0.48839973163419 ]
- symbol: I  # 39
  position: [   0.46162640519594,  0.74999994175960,  0.01160048779031 ]
- symbol: I  # 40
  position: [   0.53837350299589,  0.25000001822609,  0.98839973807772 ]
- symbol: I  # 41
  position: [   0.31604624429313,  0.97767401673279,  0.69316014108237 ]
- symbol: I  # 42
  position: [   0.68395377067718,  0.02232597402931,  0.30683989576156 ]
- symbol: I  # 43
  position: [   0.18395364031142,  0.02232591599185,  0.19316008239263 ]
- symbol: I  # 44
  position: [   0.81604628247299,  0.97767414642080,  0.80683985466541 ]
- symbol: I  # 45
  position: [   0.68395382561667,  0.47767401917818,  0.30683988110979 ]
- symbol: I  # 46
  position: [   0.31604608020751,  0.52232592831649,  0.69316002545936 ]
- symbol: I  # 47
  position: [   0.81604616937851,  0.52232590228888,  0.80684002310257 ]
- symbol: I  # 48
  position: [   0.18395364972503,  0.47767412617949,  0.19316004828291 ]
