# Sigma = 0.500000
      -15.0000000000        0.0000000000
      -14.9000000000        0.0000000000
      -14.8000000000        0.0000000000
      -14.7000000000        0.0000000000
      -14.6000000000        0.0000000000
      -14.5000000000        0.0000000000
      -14.4000000000        0.0000000000
      -14.3000000000        0.0000000000
      -14.2000000000        0.0000000000
      -14.1000000000        0.0000000000
      -14.0000000000        0.0000000000
      -13.9000000000        0.0000000000
      -13.8000000000        0.0000000000
      -13.7000000000        0.0000000000
      -13.6000000000        0.0000000000
      -13.5000000000        0.0000000000
      -13.4000000000        0.0000000000
      -13.3000000000        0.0000000000
      -13.2000000000        0.0000000000
      -13.1000000000        0.0000000000
      -13.0000000000        0.0000000000
      -12.9000000000        0.0000000000
      -12.8000000000        0.0000000000
      -12.7000000000        0.0000000000
      -12.6000000000        0.0000000000
      -12.5000000000        0.0000000000
      -12.4000000000        0.0000000000
      -12.3000000000        0.0000000000
      -12.2000000000        0.0000000000
      -12.1000000000        0.0000000000
      -12.0000000000        0.0000000000
      -11.9000000000        0.0000000000
      -11.8000000000        0.0000000000
      -11.7000000000        0.0000000000
      -11.6000000000        0.0000000000
      -11.5000000000        0.0000000000
      -11.4000000000        0.0000000000
      -11.3000000000        0.0000000000
      -11.2000000000        0.0000000000
      -11.1000000000        0.0000000000
      -11.0000000000        0.0000000000
      -10.9000000000        0.0000000000
      -10.8000000000        0.0000000000
      -10.7000000000        0.0000000000
      -10.6000000000        0.0000000000
      -10.5000000000        0.0000000000
      -10.4000000000        0.0000000000
      -10.3000000000        0.0000000000
      -10.2000000000        0.0000000000
      -10.1000000000        0.0000000000
      -10.0000000000        0.0000000000
       -9.9000000000        0.0000000000
       -9.8000000000        0.0000000000
       -9.7000000000        0.0000000000
       -9.6000000000        0.0000000000
       -9.5000000000        0.0000000000
       -9.4000000000        0.0000000000
       -9.3000000000        0.0000000000
       -9.2000000000        0.0000000000
       -9.1000000000        0.0000000000
       -9.0000000000        0.0000000000
       -8.9000000000        0.0000000000
       -8.8000000000        0.0000000000
       -8.7000000000        0.0000000000
       -8.6000000000        0.0000000000
       -8.5000000000        0.0000000000
       -8.4000000000        0.0000000000
       -8.3000000000        0.0000000000
       -8.2000000000        0.0000000000
       -8.1000000000        0.0000000000
       -8.0000000000        0.0000000000
       -7.9000000000        0.0000000000
       -7.8000000000        0.0000000000
       -7.7000000000        0.0000000000
       -7.6000000000        0.0000000000
       -7.5000000000        0.0000000000
       -7.4000000000        0.0000000000
       -7.3000000000        0.0000000000
       -7.2000000000        0.0000000000
       -7.1000000000        0.0000000000
       -7.0000000000        0.0000000000
       -6.9000000000        0.0000000000
       -6.8000000000        0.0000000000
       -6.7000000000        0.0000000000
       -6.6000000000        0.0000000000
       -6.5000000000        0.0000000000
       -6.4000000000        0.0000000000
       -6.3000000000        0.0000000000
       -6.2000000000        0.0000000000
       -6.1000000000        0.0000000000
       -6.0000000000        0.0000000000
       -5.9000000000        0.0000000000
       -5.8000000000        0.0000000000
       -5.7000000000        0.0000000000
       -5.6000000000        0.0000000000
       -5.5000000000        0.0000000000
       -5.4000000000        0.0000000000
       -5.3000000000        0.0000000000
       -5.2000000000        0.0000000000
       -5.1000000000        0.0000000000
       -5.0000000000        0.0000000000
       -4.9000000000        0.0000000000
       -4.8000000000        0.0000000000
       -4.7000000000        0.0000000000
       -4.6000000000        0.0000000000
       -4.5000000000        0.0000000000
       -4.4000000000        0.0000000000
       -4.3000000000        0.0000000000
       -4.2000000000        0.0000000000
       -4.1000000000        0.0000000000
       -4.0000000000        0.0000000000
       -3.9000000000        0.0000000000
       -3.8000000000        0.0000000000
       -3.7000000000        0.0000000000
       -3.6000000000        0.0000000000
       -3.5000000000        0.0000000000
       -3.4000000000        0.0000000000
       -3.3000000000        0.0000000000
       -3.2000000000        0.0000000002
       -3.1000000000        0.0000000005
       -3.0000000000        0.0000000019
       -2.9000000000        0.0000000063
       -2.8000000000        0.0000000205
       -2.7000000000        0.0000000642
       -2.6000000000        0.0000001937
       -2.5000000000        0.0000005644
       -2.4000000000        0.0000015880
       -2.3000000000        0.0000043162
       -2.2000000000        0.0000113334
       -2.1000000000        0.0000287542
       -2.0000000000        0.0000704999
       -1.9000000000        0.0001670606
       -1.8000000000        0.0003826529
       -1.7000000000        0.0008472791
       -1.6000000000        0.0018137639
       -1.5000000000        0.0037541405
       -1.4000000000        0.0075138303
       -1.3000000000        0.0145440439
       -1.2000000000        0.0272297509
       -1.1000000000        0.0493188234
       -1.0000000000        0.0864344459
       -0.9000000000        0.1466170173
       -0.8000000000        0.2407978586
       -0.7000000000        0.3830659119
       -0.6000000000        0.5905669600
       -0.5000000000        0.8828910458
       -0.4000000000        1.2808699464
       -0.3000000000        1.8048200283
       -0.2000000000        2.4724033513
       -0.1000000000        3.2964003913
       -0.0000000000        4.2827452854
        0.1000000000        5.4291384781
        0.2000000000        6.7244253034
        0.3000000000        8.1487551789
        0.4000000000        9.6743829775
        0.5000000000       11.2669047550
        0.6000000000       12.8867582725
        0.7000000000       14.4909318768
        0.8000000000       16.0349353073
        0.9000000000       17.4751089944
        1.0000000000       18.7712433317
        1.1000000000       19.8892794805
        1.2000000000       20.8036695315
        1.3000000000       21.4989085887
        1.4000000000       21.9698917278
        1.5000000000       22.2210745429
        1.6000000000       22.2648018490
        1.7000000000       22.1194326769
        1.8000000000       21.8078778953
        1.9000000000       21.3568413721
        2.0000000000       20.7965336292
        2.1000000000       20.1601487800
        2.2000000000       19.4822253404
        2.3000000000       18.7953097854
        2.4000000000       18.1250686074
        2.5000000000       17.4848952465
        2.6000000000       16.8717485924
        2.7000000000       16.2650846693
        2.8000000000       15.6301403664
        2.9000000000       14.9256223814
        3.0000000000       14.1144320919
        3.1000000000       13.1749237530
        3.2000000000       12.1097745483
        3.3000000000       10.9500140349
        3.4000000000        9.7529719261
        3.5000000000        8.5944569977
        3.6000000000        7.5568842083
        3.7000000000        6.7159228457
        3.8000000000        6.1283677862
        3.9000000000        5.8234090307
        4.0000000000        5.7985413303
        4.1000000000        6.0203272444
        4.2000000000        6.4293652815
        4.3000000000        6.9482676251
        4.4000000000        7.4912434064
        4.5000000000        7.9739449404
        4.6000000000        8.3224533168
        4.7000000000        8.4805481032
        4.8000000000        8.4146555402
        4.9000000000        8.1160880440
        5.0000000000        7.6004086577
        5.1000000000        6.9040241868
        5.2000000000        6.0784475876
        5.3000000000        5.1830320697
        5.4000000000        4.2772687704
        5.5000000000        3.4138432131
        5.6000000000        2.6334914378
        5.7000000000        1.9622990248
        5.8000000000        1.4115499169
        5.9000000000        0.9797127884
        6.0000000000        0.6557949482
        6.1000000000        0.4231757379
        6.2000000000        0.2631443355
        6.3000000000        0.1576319407
        6.4000000000        0.0909379781
        6.5000000000        0.0505111246
        6.6000000000        0.0270068147
        6.7000000000        0.0138969860
        6.8000000000        0.0068810707
        6.9000000000        0.0032780550
        7.0000000000        0.0015022635
        7.1000000000        0.0006622127
        7.2000000000        0.0002807556
        7.3000000000        0.0001144727
        7.4000000000        0.0000448834
        7.5000000000        0.0000169220
        7.6000000000        0.0000061345
        7.7000000000        0.0000021383
        7.8000000000        0.0000007172
        7.9000000000        0.0000002335
        8.0000000000        0.0000000810
        8.1000000000        0.0000000538
        8.2000000000        0.0000001132
        8.3000000000        0.0000003403
        8.4000000000        0.0000010294
        8.5000000000        0.0000030046
        8.6000000000        0.0000084298
        8.7000000000        0.0000227275
        8.8000000000        0.0000588816
        8.9000000000        0.0001465878
        9.0000000000        0.0003506764
        9.1000000000        0.0008061324
        9.2000000000        0.0017807274
        9.3000000000        0.0037798983
        9.4000000000        0.0077100047
        9.5000000000        0.0151119773
        9.6000000000        0.0284629753
        9.7000000000        0.0515147837
        9.8000000000        0.0895934507
        9.9000000000        0.1497316624
       10.0000000000        0.2404607615
       10.1000000000        0.3710805182
       10.2000000000        0.5502823934
       10.3000000000        0.7841456827
       10.4000000000        1.0737463564
       10.5000000000        1.4128647185
       10.6000000000        1.7864608088
       10.7000000000        2.1706036740
       10.8000000000        2.5343219182
       10.9000000000        2.8433956443
       11.0000000000        3.0655409714
       11.1000000000        3.1759328177
       11.2000000000        3.1617669791
       11.3000000000        3.0247033492
       11.4000000000        2.7805459761
       11.5000000000        2.4562451771
       11.6000000000        2.0850076448
       11.7000000000        1.7007396520
       11.8000000000        1.3330983890
       11.9000000000        1.0041085579
       12.0000000000        0.7267635461
       12.1000000000        0.5054747813
       12.2000000000        0.3378310917
       12.3000000000        0.2169668417
       12.4000000000        0.1339000046
       12.5000000000        0.0794074270
       12.6000000000        0.0452516879
       12.7000000000        0.0247800042
       12.8000000000        0.0130394927
       12.9000000000        0.0065934471
       13.0000000000        0.0032037353
       13.1000000000        0.0014958662
       13.2000000000        0.0006711517
       13.3000000000        0.0002893611
       13.4000000000        0.0001198811
       13.5000000000        0.0000477257
       13.6000000000        0.0000182576
       13.7000000000        0.0000067116
       13.8000000000        0.0000023708
       13.9000000000        0.0000008048
       14.0000000000        0.0000002625
       14.1000000000        0.0000000823
       14.2000000000        0.0000000248
       14.3000000000        0.0000000072
       14.4000000000        0.0000000020
       14.5000000000        0.0000000005
       14.6000000000        0.0000000001
       14.7000000000        0.0000000000
       14.8000000000        0.0000000000
       14.9000000000        0.0000000000
       15.0000000000        0.0000000000
       15.1000000000        0.0000000000
       15.2000000000        0.0000000000
       15.3000000000        0.0000000000
       15.4000000000        0.0000000000
       15.5000000000        0.0000000000
       15.6000000000        0.0000000000
       15.7000000000        0.0000000000
       15.8000000000        0.0000000000
       15.9000000000        0.0000000000
       16.0000000000        0.0000000000
       16.1000000000        0.0000000000
       16.2000000000        0.0000000000
       16.3000000000        0.0000000000
       16.4000000000        0.0000000000
       16.5000000000        0.0000000000
       16.6000000000        0.0000000000
       16.7000000000        0.0000000000
       16.8000000000        0.0000000000
       16.9000000000        0.0000000000
       17.0000000000        0.0000000000
       17.1000000000        0.0000000000
       17.2000000000        0.0000000000
       17.3000000000        0.0000000000
       17.4000000000        0.0000000000
       17.5000000000        0.0000000000
       17.6000000000        0.0000000000
       17.7000000000        0.0000000000
       17.8000000000        0.0000000000
       17.9000000000        0.0000000000
       18.0000000000        0.0000000000
       18.1000000000        0.0000000000
       18.2000000000        0.0000000000
       18.3000000000        0.0000000000
       18.4000000000        0.0000000000
       18.5000000000        0.0000000000
       18.6000000000        0.0000000000
       18.7000000000        0.0000000000
       18.8000000000        0.0000000000
       18.9000000000        0.0000000000
       19.0000000000        0.0000000000
       19.1000000000        0.0000000000
       19.2000000000        0.0000000000
       19.3000000000        0.0000000000
       19.4000000000        0.0000000000
       19.5000000000        0.0000000000
       19.6000000000        0.0000000000
       19.7000000000        0.0000000000
       19.8000000000        0.0000000000
       19.9000000000        0.0000000000
       20.0000000000        0.0000000000
       20.1000000000        0.0000000000
       20.2000000000        0.0000000000
       20.3000000000        0.0000000000
       20.4000000000        0.0000000000
       20.5000000000        0.0000000000
       20.6000000000        0.0000000000
       20.7000000000        0.0000000000
       20.8000000000        0.0000000000
       20.9000000000        0.0000000000
       21.0000000000        0.0000000000
       21.1000000000        0.0000000000
       21.2000000000        0.0000000000
       21.3000000000        0.0000000000
       21.4000000000        0.0000000000
       21.5000000000        0.0000000000
       21.6000000000        0.0000000000
       21.7000000000        0.0000000000
       21.8000000000        0.0000000000
       21.9000000000        0.0000000000
       22.0000000000        0.0000000000
       22.1000000000        0.0000000000
       22.2000000000        0.0000000000
       22.3000000000        0.0000000000
       22.4000000000        0.0000000000
       22.5000000000        0.0000000000
       22.6000000000        0.0000000000
       22.7000000000        0.0000000000
       22.8000000000        0.0000000000
       22.9000000000        0.0000000000
       23.0000000000        0.0000000000
       23.1000000000        0.0000000000
       23.2000000000        0.0000000001
       23.3000000000        0.0000000003
       23.4000000000        0.0000000010
       23.5000000000        0.0000000036
       23.6000000000        0.0000000129
       23.7000000000        0.0000000439
       23.8000000000        0.0000001436
       23.9000000000        0.0000004517
       24.0000000000        0.0000013661
       24.1000000000        0.0000039721
       24.2000000000        0.0000111030
       24.3000000000        0.0000298386
       24.4000000000        0.0000771009
       24.5000000000        0.0001915639
       24.6000000000        0.0004576908
       24.7000000000        0.0010516488
       24.8000000000        0.0023240610
       24.9000000000        0.0049401936
       25.0000000000        0.0101019397
       25.1000000000        0.0198736633
       25.2000000000        0.0376196468
       25.3000000000        0.0685282434
       25.4000000000        0.1201434446
       25.5000000000        0.2027525872
       25.6000000000        0.3294057804
       25.7000000000        0.5152987025
       25.8000000000        0.7762752201
       25.9000000000        1.1263350475
       26.0000000000        1.5742754043
       26.1000000000        2.1199215813
       26.2000000000        2.7507252976
       26.3000000000        3.4397101448
       26.4000000000        4.1456999199
       26.5000000000        4.8164120677
       26.6000000000        5.3943685774
       26.7000000000        5.8248180049
       26.8000000000        6.0642025663
       26.9000000000        6.0873759488
       27.0000000000        5.8919274330
       27.1000000000        5.4985906220
       27.2000000000        4.9476421244
       27.3000000000        4.2921500407
       27.4000000000        3.5896277330
       27.5000000000        2.8938922078
       27.6000000000        2.2486828098
       27.7000000000        1.6839870023
       27.8000000000        1.2152675567
       27.9000000000        0.8451226952
       28.0000000000        0.5665026485
       28.1000000000        0.3665077925
       28.2000000000        0.2299554013
       28.3000000000        0.1422100547
       28.4000000000        0.0911004675
       28.5000000000        0.0679961200
       28.6000000000        0.0682432360
       28.7000000000        0.0911624392
       28.8000000000        0.1397256369
       28.9000000000        0.2199114513
       29.0000000000        0.3396451653
       29.1000000000        0.5072114380
       29.2000000000        0.7291165709
       29.3000000000        1.0075685789
       29.4000000000        1.3379900307
       29.5000000000        1.7071906797
       29.6000000000        2.0928950352
       29.7000000000        2.4651583437
       29.8000000000        2.7897987794
       29.9000000000        3.0334109642
       30.0000000000        3.1689823982
       30.1000000000        3.1808161804
       30.2000000000        3.0675205279
       30.3000000000        2.8422779234
       30.4000000000        2.5303218377
       30.5000000000        2.1642884575
       30.6000000000        1.7786261817
       30.7000000000        1.4043791619
       30.8000000000        1.0654037748
       30.9000000000        0.7765586192
       31.0000000000        0.5438315717
       31.1000000000        0.3659188212
       31.2000000000        0.2365566925
       31.3000000000        0.1469318308
       31.4000000000        0.0876852816
       31.5000000000        0.0502768051
       31.6000000000        0.0276973873
       31.7000000000        0.0146602068
       31.8000000000        0.0074554103
       31.9000000000        0.0036427818
       32.0000000000        0.0017101135
       32.1000000000        0.0007713418
       32.2000000000        0.0003342712
       32.3000000000        0.0001391814
       32.4000000000        0.0000556793
       32.5000000000        0.0000214011
       32.6000000000        0.0000079033
       32.7000000000        0.0000028042
       32.8000000000        0.0000009560
       32.9000000000        0.0000003131
       33.0000000000        0.0000000985
       33.1000000000        0.0000000298
       33.2000000000        0.0000000087
       33.3000000000        0.0000000024
       33.4000000000        0.0000000007
       33.5000000000        0.0000000004
       33.6000000000        0.0000000009
       33.7000000000        0.0000000033
       33.8000000000        0.0000000119
       33.9000000000        0.0000000409
       34.0000000000        0.0000001350
       34.1000000000        0.0000004283
       34.2000000000        0.0000013064
       34.3000000000        0.0000038312
       34.4000000000        0.0000108009
       34.5000000000        0.0000292743
       34.6000000000        0.0000762840
       34.7000000000        0.0001911248
       34.8000000000        0.0004604238
       34.9000000000        0.0010665362
       35.0000000000        0.0023756991
       35.1000000000        0.0050889343
       35.2000000000        0.0104834423
       35.3000000000        0.0207704139
       35.4000000000        0.0395797859
       35.5000000000        0.0725457318
       35.6000000000        0.1279038416
       35.7000000000        0.2169260441
       35.8000000000        0.3539313483
       35.9000000000        0.5555562093
       36.0000000000        0.8389970239
       36.1000000000        1.2190941720
       36.2000000000        1.7044272630
       36.3000000000        2.2929934262
       36.4000000000        2.9684352429
       36.5000000000        3.6980133298
       36.6000000000        4.4334251141
       36.7000000000        5.1150774118
       36.8000000000        5.6795872020
       36.9000000000        6.0693281258
       37.0000000000        6.2420747513
       37.1000000000        6.1785224340
       37.2000000000        5.8858335624
       37.3000000000        5.3963106227
       37.4000000000        4.7615355638
       37.5000000000        4.0434438287
       37.6000000000        3.3044637157
       37.7000000000        2.5988697389
       37.8000000000        1.9669293107
       37.9000000000        1.4325132332
       38.0000000000        1.0039162666
       38.1000000000        0.6769666324
       38.2000000000        0.4392271778
       38.3000000000        0.2741864669
       38.4000000000        0.1646763027
       38.5000000000        0.0951679110
       38.6000000000        0.0529559699
       38.7000000000        0.0284652298
       38.8000000000        0.0150005548
       38.9000000000        0.0082425771
       39.0000000000        0.0057174475
       39.1000000000        0.0063829128
       39.2000000000        0.0103988384
       39.3000000000        0.0190945947
       39.4000000000        0.0351021697
       39.5000000000        0.0625819336
       39.6000000000        0.1074212283
       39.7000000000        0.1772385834
       39.8000000000        0.2809962654
       39.9000000000        0.4280398067
       40.0000000000        0.6264742780
       40.1000000000        0.8809657805
       40.2000000000        1.1903005148
       40.3000000000        1.5452767472
       40.4000000000        1.9276479460
       40.5000000000        2.3107802180
       40.6000000000        2.6623849746
       40.7000000000        2.9491792131
       40.8000000000        3.1427488283
       40.9000000000        3.2254402529
       41.0000000000        3.1949577693
       41.1000000000        3.0665723263
       41.2000000000        2.8723840356
       41.3000000000        2.6577380201
       41.4000000000        2.4754513670
       41.5000000000        2.3788150917
       41.6000000000        2.4143693997
       41.7000000000        2.6153164775
       41.8000000000        2.9962803945
       41.9000000000        3.5500392478
       42.0000000000        4.2468119613
       42.1000000000        5.0365524305
       42.2000000000        5.8543520475
       42.3000000000        6.6284518063
       42.4000000000        7.2896617676
       42.5000000000        7.7804544779
       42.6000000000        8.0619151963
       42.7000000000        8.1172142749
       42.8000000000        7.9511896835
       42.9000000000        7.5866573208
       43.0000000000        7.0588152429
       43.1000000000        6.4093177459
       43.2000000000        5.6812569153
       43.3000000000        4.9156278403
       43.4000000000        4.1491981699
       43.5000000000        3.4133172516
       43.6000000000        2.7331705914
       43.7000000000        2.1272131104
       43.8000000000        1.6068037366
       43.9000000000        1.1762393558
       44.0000000000        0.8333757814
       44.1000000000        0.5708683878
       44.2000000000        0.3778714586
       44.3000000000        0.2419057433
       44.4000000000        0.1505888575
       44.5000000000        0.0930111706
       44.6000000000        0.0606776144
       44.7000000000        0.0480619562
       44.8000000000        0.0528906670
       44.9000000000        0.0762729230
       45.0000000000        0.1227315193
       45.1000000000        0.2000936660
       45.2000000000        0.3191065777
       45.3000000000        0.4925881225
       45.4000000000        0.7339400964
       45.5000000000        1.0549590718
       45.6000000000        1.4630704262
       45.7000000000        1.9583463644
       45.8000000000        2.5308809147
       45.9000000000        3.1592042099
       46.0000000000        3.8103600607
       46.1000000000        4.4420229853
       46.2000000000        5.0066302930
       46.3000000000        5.4570424105
       46.4000000000        5.7528403338
       46.5000000000        5.8661361317
       46.6000000000        5.7857837107
       46.7000000000        5.5191443914
       46.8000000000        5.0910320619
       46.9000000000        4.5400298013
       47.0000000000        3.9128997464
       47.1000000000        3.2581713223
       47.2000000000        2.6201005441
       47.3000000000        2.0340235751
       47.4000000000        1.5237368740
       47.5000000000        1.1010408366
       47.6000000000        0.7671231801
       47.7000000000        0.5151479543
       47.8000000000        0.3333122245
       47.9000000000        0.2077215682
       48.0000000000        0.1246504546
       48.1000000000        0.0720064084
       48.2000000000        0.0400321120
       48.3000000000        0.0214147206
       48.4000000000        0.0110204683
       48.5000000000        0.0054550463
       48.6000000000        0.0025968302
       48.7000000000        0.0011887197
       48.8000000000        0.0005231875
       48.9000000000        0.0002213783
       49.0000000000        0.0000900483
       49.1000000000        0.0000352085
       49.2000000000        0.0000132319
       49.3000000000        0.0000047795
       49.4000000000        0.0000016592
       49.5000000000        0.0000005535
       49.6000000000        0.0000001775
       49.7000000000        0.0000000547
       49.8000000000        0.0000000162
       49.9000000000        0.0000000046
       50.0000000000        0.0000000013
       50.1000000000        0.0000000003
       50.2000000000        0.0000000001
       50.3000000000        0.0000000000
       50.4000000000        0.0000000000
       50.5000000000        0.0000000000
       50.6000000000        0.0000000000
       50.7000000000        0.0000000000
       50.8000000000        0.0000000000
       50.9000000000        0.0000000000
       51.0000000000        0.0000000000
       51.1000000000        0.0000000000
       51.2000000000        0.0000000000
       51.3000000000        0.0000000000
       51.4000000000        0.0000000000
       51.5000000000        0.0000000000
       51.6000000000        0.0000000000
       51.7000000000        0.0000000000
       51.8000000000        0.0000000000
       51.9000000000        0.0000000000
       52.0000000000        0.0000000000
       52.1000000000        0.0000000000
       52.2000000000        0.0000000000
       52.3000000000        0.0000000000
       52.4000000000        0.0000000000
       52.5000000000        0.0000000000
       52.6000000000        0.0000000000
       52.7000000000        0.0000000000
       52.8000000000        0.0000000000
       52.9000000000        0.0000000000
       53.0000000000        0.0000000000
       53.1000000000        0.0000000000
       53.2000000000        0.0000000000
       53.3000000000        0.0000000000
       53.4000000000        0.0000000000
       53.5000000000        0.0000000000
       53.6000000000        0.0000000000
       53.7000000000        0.0000000000
       53.8000000000        0.0000000000
       53.9000000000        0.0000000000
       54.0000000000        0.0000000000
       54.1000000000        0.0000000000
       54.2000000000        0.0000000000
       54.3000000000        0.0000000000
       54.4000000000        0.0000000000
       54.5000000000        0.0000000000
       54.6000000000        0.0000000000
       54.7000000000        0.0000000000
       54.8000000000        0.0000000000
       54.9000000000        0.0000000000
       55.0000000000        0.0000000000
       55.1000000000        0.0000000000
       55.2000000000        0.0000000000
       55.3000000000        0.0000000000
       55.4000000000        0.0000000000
       55.5000000000        0.0000000000
       55.6000000000        0.0000000000
       55.7000000000        0.0000000000
       55.8000000000        0.0000000000
       55.9000000000        0.0000000000
       56.0000000000        0.0000000000
       56.1000000000        0.0000000000
       56.2000000000        0.0000000000
       56.3000000000        0.0000000000
       56.4000000000        0.0000000000
       56.5000000000        0.0000000000
       56.6000000000        0.0000000000
       56.7000000000        0.0000000000
       56.8000000000        0.0000000000
       56.9000000000        0.0000000000
       57.0000000000        0.0000000000
       57.1000000000        0.0000000000
       57.2000000000        0.0000000000
       57.3000000000        0.0000000000
       57.4000000000        0.0000000000
       57.5000000000        0.0000000000
       57.6000000000        0.0000000000
       57.7000000000        0.0000000000
       57.8000000000        0.0000000000
       57.9000000000        0.0000000000
       58.0000000000        0.0000000000