# Sigma = 0.500000
      -15.0000000000        0.0000000000
      -14.9000000000        0.0000000000
      -14.8000000000        0.0000000000
      -14.7000000000        0.0000000000
      -14.6000000000        0.0000000000
      -14.5000000000        0.0000000000
      -14.4000000000        0.0000000000
      -14.3000000000        0.0000000000
      -14.2000000000        0.0000000000
      -14.1000000000        0.0000000000
      -14.0000000000        0.0000000000
      -13.9000000000        0.0000000000
      -13.8000000000        0.0000000000
      -13.7000000000        0.0000000000
      -13.6000000000        0.0000000000
      -13.5000000000        0.0000000000
      -13.4000000000        0.0000000000
      -13.3000000000        0.0000000000
      -13.2000000000        0.0000000000
      -13.1000000000        0.0000000000
      -13.0000000000        0.0000000000
      -12.9000000000        0.0000000000
      -12.8000000000        0.0000000000
      -12.7000000000        0.0000000000
      -12.6000000000        0.0000000000
      -12.5000000000        0.0000000000
      -12.4000000000        0.0000000000
      -12.3000000000        0.0000000000
      -12.2000000000        0.0000000000
      -12.1000000000        0.0000000000
      -12.0000000000        0.0000000000
      -11.9000000000        0.0000000000
      -11.8000000000        0.0000000000
      -11.7000000000        0.0000000000
      -11.6000000000        0.0000000000
      -11.5000000000        0.0000000000
      -11.4000000000        0.0000000000
      -11.3000000000        0.0000000000
      -11.2000000000        0.0000000000
      -11.1000000000        0.0000000000
      -11.0000000000        0.0000000000
      -10.9000000000        0.0000000000
      -10.8000000000        0.0000000000
      -10.7000000000        0.0000000000
      -10.6000000000        0.0000000000
      -10.5000000000        0.0000000000
      -10.4000000000        0.0000000000
      -10.3000000000        0.0000000000
      -10.2000000000        0.0000000000
      -10.1000000000        0.0000000000
      -10.0000000000        0.0000000000
       -9.9000000000        0.0000000000
       -9.8000000000        0.0000000000
       -9.7000000000        0.0000000000
       -9.6000000000        0.0000000000
       -9.5000000000        0.0000000000
       -9.4000000000        0.0000000000
       -9.3000000000        0.0000000000
       -9.2000000000        0.0000000000
       -9.1000000000        0.0000000000
       -9.0000000000        0.0000000000
       -8.9000000000        0.0000000000
       -8.8000000000        0.0000000000
       -8.7000000000        0.0000000000
       -8.6000000000        0.0000000000
       -8.5000000000        0.0000000000
       -8.4000000000        0.0000000000
       -8.3000000000        0.0000000000
       -8.2000000000        0.0000000000
       -8.1000000000        0.0000000000
       -8.0000000000        0.0000000000
       -7.9000000000        0.0000000000
       -7.8000000000        0.0000000000
       -7.7000000000        0.0000000000
       -7.6000000000        0.0000000000
       -7.5000000000        0.0000000000
       -7.4000000000        0.0000000000
       -7.3000000000        0.0000000000
       -7.2000000000        0.0000000000
       -7.1000000000        0.0000000000
       -7.0000000000        0.0000000000
       -6.9000000000        0.0000000000
       -6.8000000000        0.0000000000
       -6.7000000000        0.0000000000
       -6.6000000000        0.0000000000
       -6.5000000000        0.0000000000
       -6.4000000000        0.0000000000
       -6.3000000000        0.0000000000
       -6.2000000000        0.0000000000
       -6.1000000000        0.0000000000
       -6.0000000000        0.0000000000
       -5.9000000000        0.0000000000
       -5.8000000000        0.0000000000
       -5.7000000000        0.0000000000
       -5.6000000000        0.0000000000
       -5.5000000000        0.0000000000
       -5.4000000000        0.0000000000
       -5.3000000000        0.0000000000
       -5.2000000000        0.0000000000
       -5.1000000000        0.0000000000
       -5.0000000000        0.0000000000
       -4.9000000000        0.0000000000
       -4.8000000000        0.0000000000
       -4.7000000000        0.0000000000
       -4.6000000000        0.0000000000
       -4.5000000000        0.0000000000
       -4.4000000000        0.0000000000
       -4.3000000000        0.0000000000
       -4.2000000000        0.0000000000
       -4.1000000000        0.0000000000
       -4.0000000000        0.0000000000
       -3.9000000000        0.0000000000
       -3.8000000000        0.0000000000
       -3.7000000000        0.0000000000
       -3.6000000000        0.0000000000
       -3.5000000000        0.0000000000
       -3.4000000000        0.0000000000
       -3.3000000000        0.0000000000
       -3.2000000000        0.0000000002
       -3.1000000000        0.0000000005
       -3.0000000000        0.0000000019
       -2.9000000000        0.0000000063
       -2.8000000000        0.0000000205
       -2.7000000000        0.0000000642
       -2.6000000000        0.0000001936
       -2.5000000000        0.0000005640
       -2.4000000000        0.0000015869
       -2.3000000000        0.0000043130
       -2.2000000000        0.0000113247
       -2.1000000000        0.0000287313
       -2.0000000000        0.0000704415
       -1.9000000000        0.0001669167
       -1.8000000000        0.0003823117
       -1.7000000000        0.0008464984
       -1.6000000000        0.0018120402
       -1.5000000000        0.0037504657
       -1.4000000000        0.0075062634
       -1.3000000000        0.0145289871
       -1.2000000000        0.0272007864
       -1.1000000000        0.0492649367
       -1.0000000000        0.0863374593
       -0.9000000000        0.1464481087
       -0.8000000000        0.2405131907
       -0.7000000000        0.3826016740
       -0.6000000000        0.5898345676
       -0.5000000000        0.8817738259
       -0.4000000000        1.2792232644
       -0.3000000000        1.8024772805
       -0.2000000000        2.4691902182
       -0.1000000000        3.2921588349
       -0.0000000000        4.2773666636
        0.1000000000        5.4226018223
        0.2000000000        6.7168327757
        0.3000000000        8.1403531093
        0.4000000000        9.6655552365
        0.5000000000       11.2581269679
        0.6000000000       12.8785070402
        0.7000000000       14.4835515819
        0.8000000000       16.0284732553
        0.9000000000       17.4691334877
        1.0000000000       18.7646553666
        1.1000000000       19.8801165989
        1.2000000000       20.7888842286
        1.3000000000       21.4740929702
        1.4000000000       21.9289272912
        1.5000000000       22.1557220571
        1.6000000000       22.1643147201
        1.7000000000       21.9703676054
        1.8000000000       21.5943617963
        1.9000000000       21.0615917512
        2.0000000000       20.4028752453
        2.1000000000       19.6550910698
        2.2000000000       18.8603669361
        2.3000000000       18.0629741921
        2.4000000000       17.3037552968
        2.5000000000       16.6129860718
        2.6000000000       16.0035535151
        2.7000000000       15.4667819413
        2.8000000000       14.9728904448
        2.9000000000       14.4769255038
        3.0000000000       13.9294066922
        3.1000000000       13.2893788400
        3.2000000000       12.5366183783
        3.3000000000       11.6797375187
        3.4000000000       10.7578864111
        3.5000000000        9.8353672145
        3.6000000000        8.9902443161
        3.7000000000        8.2994520800
        3.8000000000        7.8236171595
        3.9000000000        7.5947259836
        4.0000000000        7.6090098114
        4.1000000000        7.8262588504
        4.2000000000        8.1755094097
        4.3000000000        8.5659152782
        4.4000000000        8.9007744059
        4.5000000000        9.0922220216
        4.6000000000        9.0740635411
        4.7000000000        8.8106106027
        4.8000000000        8.3001559055
        4.9000000000        7.5727577512
        5.0000000000        6.6831047773
        5.1000000000        5.7001506709
        5.2000000000        4.6957249894
        5.3000000000        3.7343163402
        5.4000000000        2.8657141369
        5.5000000000        2.1213558100
        5.6000000000        1.5143130657
        5.7000000000        1.0421129487
        5.8000000000        0.6911890734
        5.9000000000        0.4417301142
        6.0000000000        0.2719560011
        6.1000000000        0.1612623252
        6.2000000000        0.0920827317
        6.3000000000        0.0506243730
        6.4000000000        0.0267922304
        6.5000000000        0.0136478221
        6.6000000000        0.0066906171
        6.7000000000        0.0031562073
        6.8000000000        0.0014325649
        6.9000000000        0.0006255611
        7.0000000000        0.0002627804
        7.1000000000        0.0001061815
        7.2000000000        0.0000412672
        7.3000000000        0.0000154253
        7.4000000000        0.0000055451
        7.5000000000        0.0000019169
        7.6000000000        0.0000006373
        7.7000000000        0.0000002039
        7.8000000000        0.0000000633
        7.9000000000        0.0000000212
        8.0000000000        0.0000000148
        8.1000000000        0.0000000340
        8.2000000000        0.0000001075
        8.3000000000        0.0000003389
        8.4000000000        0.0000010296
        8.5000000000        0.0000030061
        8.6000000000        0.0000084342
        8.7000000000        0.0000227389
        8.8000000000        0.0000589100
        8.9000000000        0.0001466554
        9.0000000000        0.0003508311
        9.1000000000        0.0008064715
        9.2000000000        0.0017814403
        9.3000000000        0.0037813347
        9.4000000000        0.0077127777
        9.5000000000        0.0151171040
        9.6000000000        0.0284720496
        9.7000000000        0.0515301525
        9.8000000000        0.0896183425
        9.9000000000        0.1497701875
       10.0000000000        0.2405176846
       10.1000000000        0.3711607177
       10.2000000000        0.5503899692
       10.3000000000        0.7842827738
       10.4000000000        1.0739118577
       10.5000000000        1.4130532088
       10.6000000000        1.7866620635
       10.7000000000        2.1708030906
       10.8000000000        2.5345020029
       10.9000000000        2.8435384296
       11.0000000000        3.0656309340
       11.1000000000        3.1759596501
       11.2000000000        3.1617275321
       11.3000000000        3.0246022401
       11.4000000000        2.7803946995
       11.5000000000        2.4560599554
       11.6000000000        2.0848065741
       11.7000000000        1.7005398343
       11.8000000000        1.3329136688
       11.9000000000        1.0039482384
       12.0000000000        0.7266321583
       12.1000000000        0.5053727120
       12.2000000000        0.3377557245
       12.3000000000        0.2169138420
       12.4000000000        0.1338644569
       12.5000000000        0.0793846607
       12.6000000000        0.0452377530
       12.7000000000        0.0247718467
       12.8000000000        0.0130349227
       12.9000000000        0.0065909959
       13.0000000000        0.0032024760
       13.1000000000        0.0014952464
       13.2000000000        0.0006708592
       13.3000000000        0.0002892288
       13.4000000000        0.0001198237
       13.5000000000        0.0000477018
       13.6000000000        0.0000182481
       13.7000000000        0.0000067080
       13.8000000000        0.0000023695
       13.9000000000        0.0000008043
       14.0000000000        0.0000002623
       14.1000000000        0.0000000822
       14.2000000000        0.0000000248
       14.3000000000        0.0000000072
       14.4000000000        0.0000000020
       14.5000000000        0.0000000005
       14.6000000000        0.0000000001
       14.7000000000        0.0000000000
       14.8000000000        0.0000000000
       14.9000000000        0.0000000000
       15.0000000000        0.0000000000
       15.1000000000        0.0000000000
       15.2000000000        0.0000000000
       15.3000000000        0.0000000000
       15.4000000000        0.0000000000
       15.5000000000        0.0000000000
       15.6000000000        0.0000000000
       15.7000000000        0.0000000000
       15.8000000000        0.0000000000
       15.9000000000        0.0000000000
       16.0000000000        0.0000000000
       16.1000000000        0.0000000000
       16.2000000000        0.0000000000
       16.3000000000        0.0000000000
       16.4000000000        0.0000000000
       16.5000000000        0.0000000000
       16.6000000000        0.0000000000
       16.7000000000        0.0000000000
       16.8000000000        0.0000000000
       16.9000000000        0.0000000000
       17.0000000000        0.0000000000
       17.1000000000        0.0000000000
       17.2000000000        0.0000000000
       17.3000000000        0.0000000000
       17.4000000000        0.0000000000
       17.5000000000        0.0000000000
       17.6000000000        0.0000000000
       17.7000000000        0.0000000000
       17.8000000000        0.0000000000
       17.9000000000        0.0000000000
       18.0000000000        0.0000000000
       18.1000000000        0.0000000000
       18.2000000000        0.0000000000
       18.3000000000        0.0000000000
       18.4000000000        0.0000000000
       18.5000000000        0.0000000000
       18.6000000000        0.0000000000
       18.7000000000        0.0000000000
       18.8000000000        0.0000000000
       18.9000000000        0.0000000000
       19.0000000000        0.0000000000
       19.1000000000        0.0000000000
       19.2000000000        0.0000000000
       19.3000000000        0.0000000000
       19.4000000000        0.0000000000
       19.5000000000        0.0000000000
       19.6000000000        0.0000000000
       19.7000000000        0.0000000000
       19.8000000000        0.0000000000
       19.9000000000        0.0000000000
       20.0000000000        0.0000000000
       20.1000000000        0.0000000000
       20.2000000000        0.0000000000
       20.3000000000        0.0000000000
       20.4000000000        0.0000000000
       20.5000000000        0.0000000000
       20.6000000000        0.0000000000
       20.7000000000        0.0000000000
       20.8000000000        0.0000000000
       20.9000000000        0.0000000000
       21.0000000000        0.0000000000
       21.1000000000        0.0000000000
       21.2000000000        0.0000000000
       21.3000000000        0.0000000000
       21.4000000000        0.0000000000
       21.5000000000        0.0000000000
       21.6000000000        0.0000000000
       21.7000000000        0.0000000000
       21.8000000000        0.0000000000
       21.9000000000        0.0000000000
       22.0000000000        0.0000000000
       22.1000000000        0.0000000000
       22.2000000000        0.0000000000
       22.3000000000        0.0000000000
       22.4000000000        0.0000000000
       22.5000000000        0.0000000000
       22.6000000000        0.0000000000
       22.7000000000        0.0000000000
       22.8000000000        0.0000000000
       22.9000000000        0.0000000000
       23.0000000000        0.0000000000
       23.1000000000        0.0000000000
       23.2000000000        0.0000000001
       23.3000000000        0.0000000003
       23.4000000000        0.0000000011
       23.5000000000        0.0000000039
       23.6000000000        0.0000000138
       23.7000000000        0.0000000467
       23.8000000000        0.0000001526
       23.9000000000        0.0000004788
       24.0000000000        0.0000014441
       24.1000000000        0.0000041872
       24.2000000000        0.0000116722
       24.3000000000        0.0000312819
       24.4000000000        0.0000806069
       24.5000000000        0.0001997201
       24.6000000000        0.0004758554
       24.7000000000        0.0010903568
       24.8000000000        0.0024029393
       24.9000000000        0.0050937914
       25.0000000000        0.0103875028
       25.1000000000        0.0203799948
       25.2000000000        0.0384746819
       25.3000000000        0.0699009395
       25.4000000000        0.1222336064
       25.5000000000        0.2057614121
       25.6000000000        0.3334817248
       25.7000000000        0.5204590730
       25.8000000000        0.7823139204
       25.9000000000        1.1327393166
       26.0000000000        1.5801847798
       26.1000000000        2.1241646754
       26.2000000000        2.7519588738
       26.3000000000        3.4366589626
       26.4000000000        4.1374599388
       26.5000000000        4.8027456051
       26.6000000000        5.3759027997
       26.7000000000        5.8030693599
       26.8000000000        6.0413913357
       26.9000000000        6.0660560659
       27.0000000000        5.8745161200
       27.1000000000        5.4869175492
       27.2000000000        4.9426342714
       27.3000000000        4.2937268857
       27.4000000000        3.5968174653
       27.5000000000        2.9051169840
       27.6000000000        2.2621209774
       27.7000000000        1.6979131325
       27.8000000000        1.2282937516
       27.9000000000        0.8563032883
       28.0000000000        0.5753022847
       28.1000000000        0.3726571873
       28.2000000000        0.2332253384
       28.3000000000        0.1421264454
       28.4000000000        0.0866115658
       28.5000000000        0.0570993008
       28.6000000000        0.0475932033
       28.7000000000        0.0557196956
       28.8000000000        0.0825584967
       28.9000000000        0.1323196020
       29.0000000000        0.2117986340
       29.1000000000        0.3294608553
       29.2000000000        0.4940019403
       29.3000000000        0.7123344125
       29.4000000000        0.9871479637
       29.5000000000        1.3144448032
       29.6000000000        1.6816717521
       29.7000000000        2.0671518021
       29.8000000000        2.4413718506
       29.9000000000        2.7702910144
       30.0000000000        3.0202758058
       30.1000000000        3.1637162245
       30.2000000000        3.1840372173
       30.3000000000        3.0788493670
       30.4000000000        2.8604109969
       30.5000000000        2.5532781441
       30.6000000000        2.1897649878
       30.7000000000        1.8043740746
       30.8000000000        1.4285167617
       30.9000000000        1.0866102411
       31.0000000000        0.7941306135
       31.1000000000        0.5576218384
       31.2000000000        0.3761987088
       31.3000000000        0.2438509874
       31.4000000000        0.1518663054
       31.5000000000        0.0908715692
       31.6000000000        0.0522425442
       31.7000000000        0.0288569417
       31.8000000000        0.0153146112
       31.9000000000        0.0078089266
       32.0000000000        0.0038256602
       32.1000000000        0.0018007405
       32.2000000000        0.0008143771
       32.3000000000        0.0003538586
       32.4000000000        0.0001477282
       32.5000000000        0.0000592553
       32.6000000000        0.0000228360
       32.7000000000        0.0000084556
       32.8000000000        0.0000030081
       32.9000000000        0.0000010282
       33.0000000000        0.0000003377
       33.1000000000        0.0000001065
       33.2000000000        0.0000000323
       33.3000000000        0.0000000094
       33.4000000000        0.0000000027
       33.5000000000        0.0000000008
       33.6000000000        0.0000000005
       33.7000000000        0.0000000013
       33.8000000000        0.0000000045
       33.9000000000        0.0000000158
       34.0000000000        0.0000000538
       34.1000000000        0.0000001761
       34.2000000000        0.0000005541
       34.3000000000        0.0000016756
       34.4000000000        0.0000048710
       34.5000000000        0.0000136128
       34.6000000000        0.0000365750
       34.7000000000        0.0000944803
       34.8000000000        0.0002346597
       34.9000000000        0.0005603958
       35.0000000000        0.0012868562
       35.1000000000        0.0028416093
       35.2000000000        0.0060341868
       35.3000000000        0.0123229442
       35.4000000000        0.0242032259
       35.5000000000        0.0457211347
       35.6000000000        0.0830745074
       35.7000000000        0.1451936504
       35.8000000000        0.2441059863
       35.9000000000        0.3948041854
       36.0000000000        0.6142973422
       36.1000000000        0.9195799061
       36.2000000000        1.3244445162
       36.3000000000        1.8353968519
       36.4000000000        2.4473457224
       36.5000000000        3.1401151777
       36.6000000000        3.8769921801
       36.7000000000        4.6063377430
       36.8000000000        5.2667006539
       36.9000000000        5.7949801401
       37.0000000000        6.1362357703
       37.1000000000        6.2530654696
       37.2000000000        6.1323448705
       37.3000000000        5.7876509198
       37.4000000000        5.2567517147
       37.5000000000        4.5948034619
       37.6000000000        3.8649468419
       37.7000000000        3.1285125278
       37.8000000000        2.4369058946
       37.9000000000        1.8265558841
       38.0000000000        1.3173636960
       38.1000000000        0.9141987069
       38.2000000000        0.6104077495
       38.3000000000        0.3921256365
       38.4000000000        0.2423464753
       38.5000000000        0.1440905089
       38.6000000000        0.0824152608
       38.7000000000        0.0453492924
       38.8000000000        0.0240159315
       38.9000000000        0.0122681087
       39.0000000000        0.0061155722
       39.1000000000        0.0031429241
       39.2000000000        0.0020317239
       39.3000000000        0.0022350644
       39.4000000000        0.0038145185
       39.5000000000        0.0074317728
       39.6000000000        0.0144796138
       39.7000000000        0.0273271605
       39.8000000000        0.0496326390
       39.9000000000        0.0866394700
       40.0000000000        0.1453229796
       40.1000000000        0.2342125356
       40.2000000000        0.3627054569
       40.3000000000        0.5397470925
       40.4000000000        0.7718983119
       40.5000000000        1.0610408444
       40.6000000000        1.4022327479
       40.7000000000        1.7824286169
       40.8000000000        2.1808110874
       40.9000000000        2.5712564142
       41.0000000000        2.9269664755
       41.1000000000        3.2266354566
       41.2000000000        3.4608678149
       41.3000000000        3.6371499659
       41.4000000000        3.7816860368
       41.5000000000        3.9369109898
       41.6000000000        4.1544206347
       41.7000000000        4.4842064060
       41.8000000000        4.9621749733
       41.9000000000        5.5986793260
       42.0000000000        6.3709514299
       42.1000000000        7.2217775612
       42.2000000000        8.0655250970
       42.3000000000        8.8009349768
       42.4000000000        9.3283402829
       42.5000000000        9.5676611543
       42.6000000000        9.4731078765
       42.7000000000        9.0412124775
       42.8000000000        8.3104651177
       42.9000000000        7.3529722732
       43.0000000000        6.2605135356
       43.1000000000        5.1285533525
       43.2000000000        4.0418562811
       43.3000000000        3.0644443894
       43.4000000000        2.2351334956
       43.5000000000        1.5683358532
       43.6000000000        1.0586830271
       43.7000000000        0.6875363360
       43.8000000000        0.4295858765
       43.9000000000        0.2582803680
       44.0000000000        0.1495047879
       44.1000000000        0.0835049563
       44.2000000000        0.0454275827
       44.3000000000        0.0249868677
       44.4000000000        0.0157404650
       44.5000000000        0.0143377467
       44.6000000000        0.0199590700
       44.7000000000        0.0340350117
       44.8000000000        0.0602308757
       44.9000000000        0.1045996086
       45.0000000000        0.1757384812
       45.1000000000        0.2847328163
       45.2000000000        0.4446476254
       45.3000000000        0.6693584030
       45.4000000000        0.9716167354
       45.5000000000        1.3604291485
       45.6000000000        1.8380634694
       45.7000000000        2.3972281104
       45.8000000000        3.0191176337
       45.9000000000        3.6730089580
       46.0000000000        4.3178880174
       46.1000000000        4.9062054680
       46.2000000000        5.3893818793
       46.3000000000        5.7242289589
       46.4000000000        5.8791509703
       46.5000000000        5.8389340290
       46.6000000000        5.6071528014
       46.7000000000        5.2056834417
       46.8000000000        4.6714030237
       46.9000000000        4.0507353826
       47.0000000000        3.3931263364
       47.1000000000        2.7446924706
       47.2000000000        2.1431533897
       47.3000000000        1.6147772322
       47.4000000000        1.1735607519
       47.5000000000        0.8223743054
       47.6000000000        0.5554543788
       47.7000000000        0.3614886981
       47.8000000000        0.2266058731
       47.9000000000        0.1367890236
       48.0000000000        0.0794913258
       48.1000000000        0.0444603129
       48.2000000000        0.0239285403
       48.3000000000        0.0123898950
       48.4000000000        0.0061709646
       48.5000000000        0.0029560207
       48.6000000000        0.0013616759
       48.7000000000        0.0006031174
       48.8000000000        0.0002568314
       48.9000000000        0.0001051416
       49.0000000000        0.0000413759
       49.1000000000        0.0000156509
       49.2000000000        0.0000056902
       49.3000000000        0.0000019883
       49.4000000000        0.0000006677
       49.5000000000        0.0000002155
       49.6000000000        0.0000000668
       49.7000000000        0.0000000199
       49.8000000000        0.0000000057
       49.9000000000        0.0000000016
       50.0000000000        0.0000000004
       50.1000000000        0.0000000001
       50.2000000000        0.0000000000
       50.3000000000        0.0000000000
       50.4000000000        0.0000000000
       50.5000000000        0.0000000000
       50.6000000000        0.0000000000
       50.7000000000        0.0000000000
       50.8000000000        0.0000000000
       50.9000000000        0.0000000000
       51.0000000000        0.0000000000
       51.1000000000        0.0000000000
       51.2000000000        0.0000000000
       51.3000000000        0.0000000000
       51.4000000000        0.0000000000
       51.5000000000        0.0000000000
       51.6000000000        0.0000000000
       51.7000000000        0.0000000000
       51.8000000000        0.0000000000
       51.9000000000        0.0000000000
       52.0000000000        0.0000000000
       52.1000000000        0.0000000000
       52.2000000000        0.0000000000
       52.3000000000        0.0000000000
       52.4000000000        0.0000000000
       52.5000000000        0.0000000000
       52.6000000000        0.0000000000
       52.7000000000        0.0000000000
       52.8000000000        0.0000000000
       52.9000000000        0.0000000000
       53.0000000000        0.0000000000
       53.1000000000        0.0000000000
       53.2000000000        0.0000000000
       53.3000000000        0.0000000000
       53.4000000000        0.0000000000
       53.5000000000        0.0000000000
       53.6000000000        0.0000000000
       53.7000000000        0.0000000000
       53.8000000000        0.0000000000
       53.9000000000        0.0000000000
       54.0000000000        0.0000000000
       54.1000000000        0.0000000000
       54.2000000000        0.0000000000
       54.3000000000        0.0000000000
       54.4000000000        0.0000000000
       54.5000000000        0.0000000000
       54.6000000000        0.0000000000
       54.7000000000        0.0000000000
       54.8000000000        0.0000000000
       54.9000000000        0.0000000000
       55.0000000000        0.0000000000
       55.1000000000        0.0000000000
       55.2000000000        0.0000000000
       55.3000000000        0.0000000000
       55.4000000000        0.0000000000
       55.5000000000        0.0000000000
       55.6000000000        0.0000000000
       55.7000000000        0.0000000000
       55.8000000000        0.0000000000
       55.9000000000        0.0000000000
       56.0000000000        0.0000000000
       56.1000000000        0.0000000000
       56.2000000000        0.0000000000
       56.3000000000        0.0000000000
       56.4000000000        0.0000000000
       56.5000000000        0.0000000000
       56.6000000000        0.0000000000
       56.7000000000        0.0000000000
       56.8000000000        0.0000000000
       56.9000000000        0.0000000000
       57.0000000000        0.0000000000
       57.1000000000        0.0000000000
       57.2000000000        0.0000000000
       57.3000000000        0.0000000000
       57.4000000000        0.0000000000
       57.5000000000        0.0000000000
       57.6000000000        0.0000000000
       57.7000000000        0.0000000000
       57.8000000000        0.0000000000
       57.9000000000        0.0000000000
       58.0000000000        0.0000000000