48   
41   

1    
  0.0055074840131907   0.0083467131162180  -0.0000000018866352
  -0.2924452100   -0.4596261500   -0.0226994200
   0.0009022200   -0.0000147500   -0.0004436100
   0.0009057900   -0.0000080400    0.0004781100
  -0.0009139300   -0.0000328300   -0.0005030000
   0.0557573600    0.0711050600   -0.0195509400
   0.0005308500   -0.0000177100   -0.0007165200
   0.0005822500   -0.0000244400    0.0007272700
  -0.0005485300   -0.0000463100   -0.0006775900
  -0.0146828900   -0.0052189200    0.0241359000
   0.0005976600    0.0002299900   -0.0003440100
   0.0005480600    0.0002096200    0.0003839700
  -0.0005106800   -0.0001583100   -0.0003627400
   0.0005903600   -0.0002710500   -0.0003502300
   0.0076964500   -0.0005484900   -0.0164932900
  -0.0005317700    0.0002200500   -0.0003221700
   0.0005123900   -0.0002384700    0.0003943700
   0.0059151400    0.0002384300   -0.0174589500
   0.0004289700   -0.0000272900   -0.0006858700
   0.0004204900   -0.0000376100    0.0006901600
  -0.0004899000    0.0000184400   -0.0006728500
  -0.0217793200    0.1469040600   -0.0603717200
   0.0009588900   -0.0001548400   -0.0003133700
   0.0009382000   -0.0001516100    0.0003426500
  -0.0009341800    0.0001440300   -0.0003433600
   0.0009350000    0.0000997700   -0.0003290600
   0.0908322600    0.2100247100    0.0928978700
  -0.0009190400   -0.0001577400   -0.0003359400
   0.0009348900    0.0001011700    0.0003513200
   0.1617387300    0.0336309000    0.0221205600
   0.0006427700   -0.0000100400   -0.0001765100
   0.0006502200   -0.0000174100    0.0002044900
  -0.0006239700   -0.0000258300   -0.0001853100
   0.0000685500    0.0002600700    0.0003341800
   0.0001201200   -0.0002683500    0.0000172900
   0.0000837000   -0.0001495700   -0.0005692900
  -0.0002547900    0.0001376200    0.0003461700
  -0.0000930500    0.0000748700    0.0003772500
   0.0001020600    0.0000710000   -0.0002786400
   0.0000802900    0.0009685000   -0.0001261700
   0.0000961500   -0.0001481300   -0.0002389200
  -0.0000919200    0.0001266300   -0.0002742200
   0.0001643500   -0.0000502100    0.0003207300
   0.0005088000   -0.0004405800   -0.0003812000
   0.0009549800    0.0020532300    0.0009882800
   0.0000060500    0.0002052100    0.0003579100
  -0.0000683100   -0.0000992300   -0.0003245300
  -0.0007724800    0.0004245700    0.0000965200
   0.0004559700    0.0006960100   -0.0000355900

1    
 -0.0055074840131907  -0.0083467131162180   0.0000000018866352
   0.2923954400    0.4704167300    0.0335894300
   0.0009094500   -0.0000153600   -0.0005024200
   0.0009031700   -0.0000178400    0.0005074100
  -0.0008868600   -0.0000064800   -0.0004399300
  -0.0572020500   -0.0717396500    0.0208339700
   0.0006168800   -0.0000134700   -0.0006641600
   0.0005688700   -0.0000144200    0.0006963300
  -0.0005931400    0.0000258600   -0.0007076200
   0.0137109600    0.0048052100   -0.0234747200
   0.0004818800    0.0001916500   -0.0003952900
   0.0005316000    0.0002134600    0.0003939500
  -0.0005653300   -0.0003308200   -0.0003734600
   0.0004863900   -0.0002106200   -0.0003890800
  -0.0087479300    0.0009953400    0.0175156100
  -0.0005387500    0.0001948300   -0.0004193100
   0.0005601700   -0.0002376200    0.0003880800
  -0.0068685300   -0.0001542900    0.0190627600
   0.0004078100   -0.0000055300   -0.0006885700
   0.0004176300    0.0000046100    0.0007258800
  -0.0003499400   -0.0000487200   -0.0007017200
   0.0174303500   -0.1449401600    0.0584910900
   0.0009154100   -0.0001050900   -0.0003332400
   0.0009376500   -0.0001122800    0.0003420000
  -0.0009373400    0.0000549700   -0.0003010600
   0.0009373200    0.0000976000   -0.0003164500
  -0.0956159400   -0.2206525500   -0.0999486900
  -0.0009480100   -0.0000974500   -0.0003110100
   0.0009357700    0.0000935400    0.0003369400
  -0.1590181200   -0.0357197700   -0.0215177600
   0.0006521300   -0.0000197900   -0.0001896700
   0.0006440200   -0.0000118200    0.0001999000
  -0.0006677000   -0.0000069500   -0.0001779100
  -0.0000488300   -0.0002821000   -0.0003417100
  -0.0001367600    0.0002520800   -0.0000196500
  -0.0000939400    0.0001171200    0.0005857100
   0.0002680700   -0.0001889600   -0.0003487400
  -0.0001398000   -0.0000930800    0.0002783300
   0.0001406500   -0.0001001900   -0.0003505600
   0.0000220500    0.0007536200   -0.0000786200
  -0.0003380500    0.0001141700   -0.0003891700
  -0.0001385900    0.0000750500   -0.0003576800
   0.0000793100   -0.0002201300    0.0003621400
  -0.0002845400    0.0001711000   -0.0002589700
  -0.0011906200   -0.0018312000   -0.0002965400
   0.0002357100    0.0000021600    0.0003182800
  -0.0001679900   -0.0001728700   -0.0003098600
   0.0005404200   -0.0007166500    0.0005966500
  -0.0002503100   -0.0005132500   -0.0006209000

1    
 -0.0000000002243064  -0.0000000021128815   0.0099999999999998
  -0.0462828500   -0.0000192900   -0.4513641300
   0.0009523300   -0.0000177800   -0.0005166400
   0.0009353900   -0.0000155600    0.0005790200
  -0.0008431900   -0.0000223800   -0.0004356800
  -0.0390364800   -0.0000154400    0.1707523400
   0.0006408600   -0.0000177300   -0.0006337500
   0.0005866000   -0.0000206400    0.0006474200
  -0.0005456600   -0.0000136800   -0.0007066700
  -0.0075516800    0.0030045700    0.0211402700
   0.0004675000    0.0001222200   -0.0003864000
   0.0005412000    0.0001333900    0.0004052000
  -0.0005781300   -0.0002479400   -0.0003224100
   0.0004662700   -0.0001590800   -0.0003862400
  -0.0075493900   -0.0030437500    0.0211401700
  -0.0005753100    0.0002067100   -0.0003246300
   0.0005391500   -0.0001680700    0.0004069200
  -0.0069365800   -0.0000178500   -0.0010627100
   0.0003678100   -0.0000196200   -0.0006989000
   0.0004033800   -0.0000193300    0.0007647300
  -0.0005244000   -0.0000173400   -0.0006382900
   0.0385722900   -0.1018099800    0.0974929200
   0.0009054200   -0.0001092100   -0.0003310000
   0.0009344800   -0.0001015300    0.0003431800
  -0.0009307300    0.0001212800   -0.0003467400
   0.0009039200    0.0000717700   -0.0003306600
   0.0385737900    0.1017735200    0.0974924100
  -0.0009281900   -0.0001546600   -0.0003480700
   0.0009324300    0.0000611500    0.0003449900
   0.0250665200   -0.0000192300    0.0470609200
   0.0006608700   -0.0000176500   -0.0001838200
   0.0006396500   -0.0000178500    0.0002082600
  -0.0006425600   -0.0000191500   -0.0001072000
   0.0000327100    0.0000860000    0.0006586800
   0.0001957100   -0.0002719300   -0.0005764700
   0.0000233400   -0.0001193600    0.0006666300
   0.0002026700    0.0002315900   -0.0005753000
  -0.0002750100   -0.0000146900    0.0013113000
   0.0001511000   -0.0000159600   -0.0003738800
   0.0000047200    0.0008604000   -0.0000089500
   0.0020480800   -0.0000194600    0.0001611700
  -0.0001111900    0.0000795100   -0.0003180300
   0.0001296900    0.0000501500    0.0002011400
  -0.0011155100    0.0013505000   -0.0006462000
  -0.0001745200    0.0003239600    0.0003067900
   0.0001286800   -0.0000876400    0.0001978200
  -0.0001126200   -0.0001176900   -0.0003199100
  -0.0001751800   -0.0003596600    0.0003069500
  -0.0011173900   -0.0013856100   -0.0006465400

1    
  0.0000000002243064   0.0000000021128815  -0.0099999999999998
   0.0549871400   -0.0000194700    0.4399702200
   0.0008566700   -0.0000177900   -0.0004224900
   0.0008708000   -0.0000155800    0.0004201100
  -0.0009685600   -0.0000223800   -0.0005009100
   0.0330023100   -0.0000153800   -0.1587048100
   0.0004981900   -0.0000177500   -0.0007272200
   0.0005531900   -0.0000205800    0.0007779900
  -0.0006031600   -0.0000136700   -0.0006566800
   0.0062559900   -0.0032759500   -0.0197198600
   0.0006037000    0.0002868900   -0.0003452300
   0.0005322000    0.0002782500    0.0003860000
  -0.0005008800   -0.0002366300   -0.0004082500
   0.0006024800   -0.0003237600   -0.0003450800
   0.0062582700    0.0032367400   -0.0197199100
  -0.0004980700    0.0001954000   -0.0004104900
   0.0005301600   -0.0003129300    0.0003877200
   0.0059503200   -0.0000178500    0.0024644700
   0.0004685900   -0.0000196300   -0.0006639400
   0.0004345000   -0.0000193300    0.0006624000
  -0.0003129200   -0.0000173400   -0.0007285800
  -0.0418619600    0.1051829800   -0.0966720900
   0.0009625500   -0.0001517600   -0.0003083700
   0.0009336100   -0.0001626800    0.0003550700
  -0.0009431300    0.0000681900   -0.0002904300
   0.0009610500    0.0001143000   -0.0003080300
  -0.0418604400   -0.1052193200   -0.0966726200
  -0.0009406000   -0.0001015700   -0.0002917600
   0.0009315600    0.0001223000    0.0003568800
  -0.0282810700   -0.0000192300   -0.0469398900
   0.0006348600   -0.0000176500   -0.0001713700
   0.0006555100   -0.0000178600    0.0002051400
  -0.0006632700   -0.0000191400   -0.0002454400
  -0.0000285300   -0.0001406300   -0.0006592600
  -0.0002085000    0.0002475600    0.0005888100
  -0.0000379200    0.0001073300   -0.0006513200
  -0.0002014700   -0.0002878700    0.0005899600
   0.0000439800   -0.0000147200   -0.0005743900
   0.0000878200   -0.0000159200   -0.0002458900
   0.0000920700    0.0008604000   -0.0001857600
  -0.0022768800   -0.0000194500   -0.0007772400
  -0.0001286600    0.0001235200   -0.0003039500
   0.0001094000   -0.0003261500    0.0004956500
   0.0013247300   -0.0016024400    0.0000101500
  -0.0000630800   -0.0001035200    0.0003921200
   0.0001083500    0.0002886700    0.0004923600
  -0.0001300700   -0.0001617200   -0.0003058500
  -0.0000637600    0.0000677900    0.0003922500
   0.0013229000    0.0015673500    0.0000098000

5    
  0.0055074840131907   0.0083467131162180  -0.0000000018866352
   0.0557436500    0.0717362600   -0.0192701600
   0.0008668800    0.0000101600   -0.0004287600
   0.0009142900    0.0000095500    0.0004947200
  -0.0008761900   -0.0000283500   -0.0004825000
  -0.3251004400   -0.5100818600   -0.0332349600
   0.0005620900    0.0002250800   -0.0006979600
   0.0005777100    0.0002614500    0.0007373200
  -0.0005666800   -0.0001694900   -0.0006716500
   0.0928845000    0.2296095000    0.1205965500
   0.0005007700    0.0000617500   -0.0003753300
   0.0004672300    0.0000535300    0.0004273600
  -0.0005316700    0.0000695100   -0.0003797200
   0.0006410100   -0.0004504500   -0.0003224200
  -0.0101987500    0.1543823900   -0.0670694700
  -0.0005366900    0.0003985200   -0.0002352800
   0.0006234000   -0.0004254200    0.0003723100
   0.1693204600    0.0450755100    0.0117482300
   0.0004096700   -0.0000829900   -0.0006581400
   0.0004496700   -0.0000355300    0.0007192200
  -0.0004276400    0.0001402100   -0.0006848700
   0.0094093400   -0.0020484800   -0.0179046500
   0.0010661500   -0.0002117700   -0.0002774100
   0.0008286700   -0.0001289000    0.0003327600
  -0.0009428100    0.0001973100   -0.0003668700
   0.0009093000    0.0000480700   -0.0003416500
  -0.0149795300   -0.0035739800    0.0258766200
  -0.0009398200   -0.0001090500   -0.0003435600
   0.0009885300    0.0000755700    0.0003705600
   0.0059124800    0.0003758300   -0.0209304900
   0.0006528700    0.0000178900   -0.0001960100
   0.0006684900   -0.0001034300    0.0001774500
  -0.0006394300    0.0000517700   -0.0001790800
  -0.0002175100   -0.0000685600    0.0003047200
   0.0004704900   -0.0007330000   -0.0005282300
   0.0007761000    0.0002093400   -0.0008221300
  -0.0012262100    0.0009424800    0.0010915000
  -0.0002896700   -0.0005999000    0.0003472600
   0.0000864700    0.0004415000   -0.0002677500
   0.0001514700    0.0014700800   -0.0001548000
   0.0073310200   -0.0016899500    0.0019126300
  -0.0001623500    0.0002707900   -0.0002768000
   0.0004721200    0.0004239900   -0.0001525900
  -0.0041569000    0.0036021700   -0.0017580900
  -0.0001811800    0.0002855800    0.0003475400
   0.0000841900    0.0001160600    0.0005120600
   0.0000371700   -0.0000481800   -0.0002491000
  -0.0000358600   -0.0000993900    0.0004203000
   0.0082031300    0.0101268200    0.0024713200

5    
 -0.0055074840131907  -0.0083467131162180   0.0000000018866352
  -0.0572097400   -0.0711704400    0.0203018100
   0.0009565300   -0.0000469700   -0.0005340300
   0.0009045500   -0.0000420700    0.0004834800
  -0.0009155000   -0.0000178500   -0.0004772800
   0.3222571900    0.4973163100    0.0220859500
   0.0005963800   -0.0002621100   -0.0006922600
   0.0005817500   -0.0003045000    0.0006731300
  -0.0005657100    0.0001403900   -0.0007239500
  -0.0903209200   -0.2176368600   -0.1100350300
   0.0005850400    0.0003478400   -0.0003779900
   0.0006215800    0.0003579400    0.0003398900
  -0.0005293000   -0.0005619100   -0.0003688400
   0.0004436200   -0.0000364000   -0.0004297900
   0.0119236200   -0.1563546000    0.0712471100
  -0.0005212000    0.0000084700   -0.0005178900
   0.0004604900   -0.0000585100    0.0003982500
  -0.1756443000   -0.0428730000   -0.0102148000
   0.0004378000    0.0000429100   -0.0007283700
   0.0003996000   -0.0000052700    0.0006850400
  -0.0004067500   -0.0001777600   -0.0007002700
  -0.0112751600    0.0022231400    0.0183337700
   0.0008151800   -0.0000542400   -0.0003816400
   0.0010578400   -0.0001432000    0.0003409900
  -0.0009186000   -0.0000052900   -0.0002904300
   0.0009707700    0.0001411800   -0.0003161200
   0.0130553800    0.0032777000   -0.0250937700
  -0.0009168000   -0.0001530000   -0.0003165100
   0.0008923900    0.0001123700    0.0003065400
  -0.0070547200   -0.0005193300    0.0211347500
   0.0006537400   -0.0000554500   -0.0001810000
   0.0006363200    0.0000669400    0.0002160700
  -0.0006441600   -0.0000914000   -0.0001971100
   0.0002316500    0.0000469200   -0.0003193300
  -0.0004551600    0.0007034200    0.0005128500
  -0.0007951500   -0.0002578800    0.0008420100
   0.0012766000   -0.0009970900   -0.0011127600
   0.0000709800    0.0005705500    0.0003328600
   0.0001688100   -0.0004755400   -0.0003753400
  -0.0000425300    0.0002474100   -0.0000587700
  -0.0074640400    0.0016555800   -0.0025279900
  -0.0000590900   -0.0000743900   -0.0003657100
  -0.0002235300   -0.0007068000    0.0008235200
   0.0043343800   -0.0038000300    0.0010800300
  -0.0000456800   -0.0000701100    0.0003319400
   0.0001579200    0.0000951400    0.0001547600
  -0.0002626800   -0.0002277700   -0.0003981400
  -0.0001973700   -0.0001821300    0.0002551500
  -0.0080220200   -0.0099923200   -0.0031448100

5    
 -0.0000000002243064  -0.0000000021128815   0.0099999999999998
  -0.0351996200   -0.0000194100    0.1600708700
   0.0008636300   -0.0000178000   -0.0003722700
   0.0008926700   -0.0000155600    0.0004826500
  -0.0009228400   -0.0000223800   -0.0004435600
  -0.0555785600   -0.0000151700   -0.4931910200
   0.0005406500   -0.0000177300   -0.0006674300
   0.0005396000   -0.0000206200    0.0008099300
  -0.0005812100   -0.0000136700   -0.0006075700
   0.0418042500    0.1117879600    0.1161216700
   0.0005837700    0.0002558300   -0.0003042500
   0.0005775500    0.0002684000    0.0004403900
  -0.0004982500   -0.0001562400   -0.0003046300
   0.0005825400   -0.0002927000   -0.0003041000
   0.0418065500   -0.1118273000    0.1161216700
  -0.0004954200    0.0001150000   -0.0003068600
   0.0005755000   -0.0003030900    0.0004421000
   0.0208417600   -0.0000178600    0.0500845100
   0.0004374200   -0.0000196300   -0.0006064300
   0.0004542100   -0.0000193400    0.0007511500
  -0.0003402900   -0.0000173300   -0.0005978300
  -0.0127786700    0.0029762300    0.0223195300
   0.0009869700   -0.0001481700   -0.0002626800
   0.0009208000   -0.0001372900    0.0004032900
  -0.0009250600    0.0001203000   -0.0002962000
   0.0009854700    0.0001107200   -0.0002623300
  -0.0127771600   -0.0030126400    0.0223190100
  -0.0009225100   -0.0001536600   -0.0002975400
   0.0009187400    0.0000968800    0.0004051100
  -0.0021456000   -0.0000192300    0.0034210500
   0.0006484600   -0.0000176500   -0.0001434700
   0.0006666800   -0.0000178600    0.0002303900
  -0.0006522300   -0.0000191400   -0.0001539100
   0.0001532300   -0.0002593900   -0.0004211900
  -0.0003741100   -0.0006168500    0.0005334200
   0.0001438500    0.0002260600   -0.0004132700
  -0.0003671200    0.0005765400    0.0005345900
   0.0003678900   -0.0000147200    0.0037946300
   0.0000965200   -0.0000159500   -0.0002145300
   0.0001565500    0.0008603900   -0.0001516900
   0.0030337900   -0.0000194700   -0.0003619900
  -0.0001017400    0.0002047700   -0.0001948800
  -0.0001174100   -0.0004799700    0.0005198400
   0.0028032100   -0.0038696200    0.0000935900
  -0.0000917700    0.0000464500    0.0002835700
  -0.0001184200    0.0004424900    0.0005165300
  -0.0001031700   -0.0002429400   -0.0001967800
  -0.0000924500   -0.0000821600    0.0002836900
   0.0028013500    0.0038345200    0.0000932500

5    
  0.0000000002243064   0.0000000021128815  -0.0099999999999998
   0.0382548100   -0.0000193600   -0.1694420000
   0.0009442700   -0.0000177700   -0.0005380500
   0.0009118600   -0.0000155600    0.0005393000
  -0.0008866400   -0.0000223900   -0.0004660300
   0.0427783800   -0.0000156000    0.5034504700
   0.0005983600   -0.0000177400   -0.0006698300
   0.0006017300   -0.0000206500    0.0006436000
  -0.0005660100   -0.0000136800   -0.0007322600
  -0.0406906300   -0.1076215000   -0.1148021200
   0.0004871700    0.0001489300   -0.0004044800
   0.0004935400    0.0001379300    0.0003795100
  -0.0005775100   -0.0003241500   -0.0004017700
   0.0004859300   -0.0001857900   -0.0004043300
  -0.0406883700    0.1075824400   -0.1148022800
  -0.0005747000    0.0002829200   -0.0004040000
   0.0004914900   -0.0001726200    0.0003812400
  -0.0192871800   -0.0000178500   -0.0489394700
   0.0004050800   -0.0000196300   -0.0007309200
   0.0003896200   -0.0000193300    0.0007004500
  -0.0005102600   -0.0000173400   -0.0007421000
   0.0110372500   -0.0025407600   -0.0221044200
   0.0008787800   -0.0001089100   -0.0003519600
   0.0009462000   -0.0001239200    0.0003221200
  -0.0009477000    0.0000652300   -0.0003168600
   0.0008772800    0.0000714800   -0.0003516100
   0.0110387600    0.0025043600   -0.0221049500
  -0.0009451600   -0.0000986000   -0.0003182000
   0.0009441500    0.0000835300    0.0003239300
   0.0009043300   -0.0000192300   -0.0028525600
   0.0006515600   -0.0000176500   -0.0001834500
   0.0006325000   -0.0000178600    0.0002077900
  -0.0006560400   -0.0000191500   -0.0001721700
  -0.0001532400    0.0002251900    0.0004446400
   0.0003669900    0.0005877300   -0.0004892700
  -0.0001626800   -0.0002585200    0.0004526200
   0.0003739800   -0.0006280800   -0.0004880700
  -0.0006081300   -0.0000146900   -0.0030572400
   0.0001426600   -0.0000159400   -0.0003789500
  -0.0000596400    0.0008604200   -0.0000167800
  -0.0032356000   -0.0000194500   -0.0002061400
  -0.0001359800   -0.0000033300   -0.0004006600
   0.0003541200    0.0002004200    0.0002011600
  -0.0026158400    0.0036540000   -0.0007276500
  -0.0001434300    0.0001785400    0.0004431600
   0.0003531100   -0.0002378900    0.0001978800
  -0.0001373800   -0.0000348400   -0.0004025700
  -0.0001441100   -0.0002142500    0.0004432900
  -0.0026176800   -0.0036891000   -0.0007279900

9    
  0.0100000000000000  -0.0000000005864176  -0.0000000002222566
  -0.0063842400   -0.0134134100   -0.0064004200
   0.0009917100   -0.0000198600   -0.0005485500
   0.0008760600   -0.0000022300    0.0004847600
  -0.0008861300   -0.0000135400   -0.0004398600
   0.0732700200    0.0613562200    0.0419189100
   0.0006164000   -0.0001092200   -0.0006514000
   0.0005694800   -0.0001226000    0.0006686600
  -0.0005887600   -0.0000139400   -0.0007255100
  -0.0724404200   -0.0639755800   -0.0389748600
   0.0004720900    0.0002121800   -0.0004218200
   0.0005874200    0.0002324500    0.0003529900
  -0.0002242600   -0.0002101100   -0.0003636700
   0.0004596300   -0.0001016700   -0.0004021700
  -0.0040939700   -0.0070519000   -0.0068972300
  -0.0004828000    0.0001419700   -0.0004011900
   0.0004993200   -0.0001476700    0.0003813800
   0.0063371600    0.0261510200    0.0162514900
   0.0004185900    0.0000573700   -0.0007384400
   0.0003568200   -0.0000430600    0.0006975100
  -0.0004621500   -0.0001745100   -0.0004969300
  -0.0010693300    0.0003822300    0.0008786100
   0.0007264600   -0.0000008300   -0.0003786500
   0.0010855700   -0.0002030700    0.0003624800
  -0.0009395500    0.0000597800   -0.0003344900
   0.0009388000    0.0001156000   -0.0003054400
   0.0004822000    0.0003683600   -0.0028642400
  -0.0009641200   -0.0001268800   -0.0003388500
   0.0009011100    0.0001238400    0.0003424700
  -0.0005680400   -0.0005523500   -0.0000557200
   0.0006610100   -0.0000771300   -0.0001425500
   0.0006213100    0.0000807900    0.0002581100
  -0.0006689700   -0.0000122400   -0.0002290300
   0.0000403100    0.0002052600   -0.0001187900
  -0.0001325700    0.0002165800    0.0001303800
  -0.0014791900   -0.0003705200    0.0011462100
   0.0019670900   -0.0002884700   -0.0006320100
   0.0001684900    0.0002589100    0.0002730100
   0.0002123800   -0.0002035600   -0.0003969200
  -0.0000906800    0.0004734700   -0.0000198400
  -0.0000687000   -0.0001364400   -0.0003263800
  -0.0000816700    0.0000051400   -0.0003066600
   0.0000657600   -0.0002494600    0.0003458900
   0.0006794000   -0.0005816000   -0.0001588800
  -0.0001780600   -0.0000761000    0.0003154100
  -0.0005004200    0.0008504200    0.0005646800
  -0.0002046600   -0.0001222700   -0.0003373100
  -0.0002133600   -0.0000188800    0.0001588200
  -0.0012825500   -0.0028725100   -0.0011239400

9    
 -0.0100000000000000   0.0000000005864176   0.0000000002222566
   0.0044672000    0.0134487200    0.0074039400
   0.0008095800   -0.0000245700   -0.0004221500
   0.0009218000   -0.0000381800    0.0004935700
  -0.0009375100   -0.0000396100   -0.0005263400
  -0.0729619200   -0.0615827100   -0.0405380200
   0.0005078300    0.0000619200   -0.0007264500
   0.0005559900    0.0000698800    0.0007211300
  -0.0005613200   -0.0000192500   -0.0006574200
   0.0711766400    0.0644290000    0.0407308200
   0.0005859500    0.0001852700   -0.0003384500
   0.0004723600    0.0001667700    0.0004140900
  -0.0008659900   -0.0002865600   -0.0003918400
   0.0005943800   -0.0003830700   -0.0003579600
   0.0029251400    0.0075536800    0.0077204600
  -0.0006002700    0.0002464300   -0.0003615400
   0.0005552300   -0.0003351700    0.0003893500
  -0.0074802400   -0.0265895900   -0.0151169700
   0.0004105000   -0.0001044200   -0.0006507900
   0.0004737700   -0.0000038600    0.0007027500
  -0.0004036900    0.0001288600   -0.0008916400
  -0.0007954600   -0.0002087700   -0.0002177000
   0.0011261600   -0.0002632300   -0.0002894100
   0.0007699800   -0.0000648700    0.0003114100
  -0.0009456400    0.0001152000   -0.0003306700
   0.0009136700    0.0000578200   -0.0003606500
  -0.0023685200   -0.0006397900    0.0035092300
  -0.0009157000   -0.0001337800   -0.0003295500
   0.0009496500    0.0000465700    0.0003346500
  -0.0007464800    0.0005124100    0.0004232300
   0.0006277900    0.0000322600   -0.0002374400
   0.0006666700   -0.0001246900    0.0001284600
  -0.0006502400   -0.0000359300   -0.0001487000
  -0.0000442700   -0.0002448900    0.0000946000
   0.0001084400   -0.0002486200   -0.0001436100
   0.0014496200    0.0003225900   -0.0011317200
  -0.0019662000    0.0002241000    0.0006026000
  -0.0004164400   -0.0002924400    0.0003881000
   0.0000151100    0.0001566200   -0.0002513300
   0.0001746300    0.0012310100   -0.0001986800
  -0.0001789200    0.0000974700   -0.0003124600
  -0.0001658000    0.0001840100   -0.0003416500
   0.0001587900   -0.0000375800    0.0003249000
  -0.0004571900    0.0002878800   -0.0004961600
  -0.0000784900    0.0002729700    0.0003545400
   0.0007353500   -0.0006692300    0.0000894300
  -0.0000473700   -0.0001628400   -0.0003156200
  -0.0000441700   -0.0002705200    0.0005106400
   0.0014795900    0.0029727200    0.0004370300

9    
 -0.0000000005820563   0.0099999999999998  -0.0000000021136795
  -0.0047598100   -0.0034214000    0.0037777900
   0.0009363100   -0.0000277800   -0.0005575500
   0.0008883800   -0.0000203000    0.0005640800
  -0.0008319500    0.0000338900   -0.0004672300
   0.0587329700    0.2217556000    0.1059726000
   0.0006338800   -0.0002700800   -0.0006420200
   0.0006043100   -0.0002644200    0.0006486300
  -0.0004749800    0.0002539000   -0.0007820600
  -0.0618390100   -0.2315892200   -0.1146019000
   0.0005463800    0.0004076200   -0.0003825700
   0.0005671900    0.0003482800    0.0003649300
  -0.0005023700   -0.0007851900   -0.0002890400
   0.0003872400    0.0000588400   -0.0004343300
   0.0066812700    0.0205322500    0.0125761600
  -0.0004887900    0.0001208000   -0.0004913700
   0.0004346100    0.0000231300    0.0004152500
   0.0019087200   -0.0028365900   -0.0015784000
   0.0004002100    0.0000980300   -0.0007276200
   0.0003949500    0.0000477400    0.0007053400
  -0.0007203600   -0.0002022800   -0.0006303500
  -0.0008170100   -0.0004686500   -0.0005461600
   0.0007972900    0.0000500600   -0.0003534100
   0.0010693900   -0.0000789700    0.0003594700
  -0.0009776300   -0.0000141100   -0.0002660000
   0.0009639000    0.0001676300   -0.0002846300
  -0.0000802400   -0.0007777700   -0.0016325400
  -0.0009625300   -0.0000874100   -0.0003059400
   0.0009148700    0.0001505500    0.0003119100
  -0.0003664500   -0.0000154900   -0.0000991900
   0.0006451100   -0.0000192300   -0.0001655400
   0.0006085600    0.0000986000    0.0002480500
  -0.0006027800   -0.0000719100   -0.0001819200
   0.0000883800    0.0007744900   -0.0003173500
  -0.0001773700    0.0007882700    0.0002644800
  -0.0008399300   -0.0006681400    0.0020037100
   0.0020239300   -0.0008280300   -0.0019703600
   0.0000415300    0.0006161300    0.0009176500
   0.0001602500   -0.0005223500   -0.0003745700
  -0.0000763800    0.0001836300    0.0000188500
  -0.0012003600    0.0006175600   -0.0005320500
  -0.0000292300   -0.0001086800   -0.0003237800
   0.0000120600   -0.0003559300    0.0003985700
   0.0004096200   -0.0008591800   -0.0002750500
  -0.0001713800   -0.0002331100    0.0002885000
   0.0001421900    0.0003067900    0.0000726800
  -0.0002140800   -0.0000769000   -0.0003810600
  -0.0004548800   -0.0001143300    0.0005835800
  -0.0044059700   -0.0027163200   -0.0008982300

9    
  0.0000000005820563  -0.0099999999999998   0.0000000021136795
   0.0029254400    0.0035024700   -0.0024926000
   0.0008678900   -0.0000198000   -0.0004026300
   0.0009121200   -0.0000225400    0.0004234500
  -0.0009800600   -0.0000896100   -0.0004878600
  -0.0650915500   -0.2322693600   -0.1136133100
   0.0005051000    0.0002179700   -0.0007397100
   0.0005352300    0.0002064100    0.0007645900
  -0.0006751300   -0.0002888500   -0.0006051400
   0.0666461700    0.2426216600    0.1245937100
   0.0005213100   -0.0000050500   -0.0003649800
   0.0005032700    0.0000554700    0.0004083900
  -0.0005788500    0.0002764400   -0.0004546700
   0.0006754600   -0.0005497200   -0.0003137200
  -0.0079209400   -0.0206940700   -0.0120546800
  -0.0005882700    0.0002707500   -0.0002602700
   0.0006288200   -0.0005124200    0.0003624900
  -0.0025840300    0.0029056500    0.0031064900
   0.0004300500   -0.0001468600   -0.0006525700
   0.0004365900   -0.0000973800    0.0007050400
  -0.0001307700    0.0001519500   -0.0007486200
  -0.0010517600    0.0006455500    0.0012162000
   0.0010648200   -0.0003248800   -0.0002997700
   0.0007992800   -0.0002025100    0.0003201800
  -0.0009022700    0.0001952200   -0.0003836900
   0.0008986200    0.0000138300   -0.0003664600
  -0.0017908900    0.0004828000    0.0022994800
  -0.0009122800   -0.0001857000   -0.0003471100
   0.0009455600    0.0000280400    0.0003703200
  -0.0009257200   -0.0000347000    0.0004809600
   0.0006421700   -0.0000281400   -0.0002062300
   0.0006773300   -0.0001435100    0.0001511700
  -0.0007001100    0.0000209100   -0.0001881200
  -0.0000851100   -0.0008164500    0.0003008600
   0.0001600800   -0.0008095900   -0.0002664400
   0.0007983000    0.0006177000   -0.0019599800
  -0.0019728700    0.0007434500    0.0019229900
  -0.0002822600   -0.0006498900   -0.0002546000
   0.0000759300    0.0004693700   -0.0002628100
   0.0001664100    0.0015122500   -0.0002266200
   0.0009326600   -0.0006572200   -0.0001061100
  -0.0002112300    0.0002921700   -0.0003146500
   0.0002206300    0.0000640700    0.0002833400
  -0.0001773600    0.0005606100   -0.0003653600
  -0.0000780600    0.0004237200    0.0003896000
   0.0000851400   -0.0001101800    0.0005951100
  -0.0000333200   -0.0002098100   -0.0002631800
   0.0001964700   -0.0001765500    0.0001003100
   0.0044220000    0.0027663200    0.0002072500

9    
 -0.0000000002243064  -0.0000000021128815   0.0099999999999998
   0.0052778300    0.0242356000    0.0207204100
   0.0009297500   -0.0000134800   -0.0004952800
   0.0009007200   -0.0000101600    0.0005008200
  -0.0009458500    0.0000040600   -0.0004307600
   0.0402987600    0.1082521400    0.1159531100
   0.0005958500   -0.0000487900   -0.0006797200
   0.0005698200   -0.0000541300    0.0007056800
  -0.0006800600    0.0000747000   -0.0006822500
  -0.0391758600   -0.1174695800   -0.1280324900
   0.0004889200    0.0001972500   -0.0003860300
   0.0005666300    0.0002312800    0.0003838000
  -0.0005548600   -0.0003255500   -0.0003947400
   0.0005069400   -0.0001809500   -0.0003736500
  -0.0077789800   -0.0119871800   -0.0102191300
  -0.0005184700    0.0000873500   -0.0004720600
   0.0005380500   -0.0002165700    0.0003681600
   0.0013801600    0.0000006400    0.0021595600
   0.0003971700    0.0000219100   -0.0006976800
   0.0003896800   -0.0000130700    0.0007280000
  -0.0001273700   -0.0000776700   -0.0007284800
  -0.0001242700   -0.0000670700   -0.0004088400
   0.0008726500   -0.0000971700   -0.0003389300
   0.0009369300   -0.0001156300    0.0003574600
  -0.0009178500    0.0000923400   -0.0002912800
   0.0009459500    0.0001296700   -0.0003138700
  -0.0036669200   -0.0016723300    0.0038957300
  -0.0009089800   -0.0001374100   -0.0003108500
   0.0009191100    0.0001203100    0.0003318500
  -0.0004097100   -0.0000725000   -0.0013304500