natom:   64
displacements:
- atom:    1
  direction:
    [   0.0000000000000000,  0.0000000000000000,  1.0000000000000000 ]
  displacement:
    [  -0.0040498735165002, -0.0040482477999736,  0.0081981835945751 ]
- atom:    1
  direction:
    [   0.0000000000000000,  0.0000000000000000, -1.0000000000000000 ]
  displacement:
    [   0.0040498735165002,  0.0040482477999736, -0.0081981835945751 ]
- atom:    9
  direction:
    [   0.0000000000000000,  0.0000000000000000,  1.0000000000000000 ]
  displacement:
    [  -0.0040498735165002, -0.0040482477999736,  0.0081981835945751 ]
- atom:    9
  direction:
    [   0.0000000000000000,  0.0000000000000000, -1.0000000000000000 ]
  displacement:
    [   0.0040498735165002,  0.0040482477999736, -0.0081981835945751 ]
- atom:   17
  direction:
    [   0.0000000000000000,  0.0000000000000000,  1.0000000000000000 ]
  displacement:
    [  -0.0040498735165002, -0.0040482477999736,  0.0081981835945751 ]
- atom:   17
  direction:
    [   0.0000000000000000,  0.0000000000000000, -1.0000000000000000 ]
  displacement:
    [   0.0040498735165002,  0.0040482477999736, -0.0081981835945751 ]
- atom:   25
  direction:
    [   0.0000000000000000,  0.0000000000000000,  1.0000000000000000 ]
  displacement:
    [  -0.0040498735165002, -0.0040482477999736,  0.0081981835945751 ]
- atom:   25
  direction:
    [   0.0000000000000000,  0.0000000000000000, -1.0000000000000000 ]
  displacement:
    [   0.0040498735165002,  0.0040482477999736, -0.0081981835945751 ]
- atom:   33
  direction:
    [   1.0000000000000000,  0.0000000000000000,  0.0000000000000000 ]
  displacement:
    [   0.0099999984772645, -0.0000022752186818, -0.0000050277319179 ]
- atom:   33
  direction:
    [  -1.0000000000000000,  0.0000000000000000,  0.0000000000000000 ]
  displacement:
    [  -0.0099999984772645,  0.0000022752186818,  0.0000050277319179 ]
- atom:   33
  direction:
    [   0.0000000000000000,  1.0000000000000000,  0.0000000000000000 ]
  displacement:
    [   0.0000029930976160,  0.0099999988047258, -0.0000038661155824 ]
- atom:   33
  direction:
    [   0.0000000000000000, -1.0000000000000000,  0.0000000000000000 ]
  displacement:
    [  -0.0000029930976160, -0.0099999988047258,  0.0000038661155824 ]
- atom:   33
  direction:
    [   0.0000000000000000,  0.0000000000000000,  1.0000000000000000 ]
  displacement:
    [  -0.0040498735165002, -0.0040482477999736,  0.0081981835945751 ]
- atom:   33
  direction:
    [   0.0000000000000000,  0.0000000000000000, -1.0000000000000000 ]
  displacement:
    [   0.0040498735165002,  0.0040482477999736, -0.0081981835945751 ]
lattice:
- [   10.610764596817519,  -0.002414181351449,  -0.005334808796054 ]
- [    0.003175969311135,  10.610976783952529,  -0.004102326759265 ]
- [   -5.300759962167556,  -5.298632109769501,  10.730360635602464 ]
atoms:
- symbol: Cu # 1
  position: [   0.49911520500000,  0.49912385500000,  0.00010258000000 ]
- symbol: Cu # 2
  position: [   0.99911520500000,  0.49912385500000,  0.00010258000000 ]
- symbol: Cu # 3
  position: [   0.49911520500000,  0.99912385500000,  0.00010258000000 ]
- symbol: Cu # 4
  position: [   0.99911520500000,  0.99912385500000,  0.00010258000000 ]
- symbol: Cu # 5
  position: [   0.49911520500000,  0.49912385500000,  0.50010258000000 ]
- symbol: Cu # 6
  position: [   0.99911520500000,  0.49912385500000,  0.50010258000000 ]
- symbol: Cu # 7
  position: [   0.49911520500000,  0.99912385500000,  0.50010258000000 ]
- symbol: Cu # 8
  position: [   0.99911520500000,  0.99912385500000,  0.50010258000000 ]
- symbol: Cu # 9
  position: [   0.12408699500000,  0.37408138000000,  0.24998603000000 ]
- symbol: Cu # 10
  position: [   0.62408699500000,  0.37408138000000,  0.24998603000000 ]
- symbol: Cu # 11
  position: [   0.12408699500000,  0.87408138000000,  0.24998603000000 ]
- symbol: Cu # 12
  position: [   0.62408699500000,  0.87408138000000,  0.24998603000000 ]
- symbol: Cu # 13
  position: [   0.12408699500000,  0.37408138000000,  0.74998603000000 ]
- symbol: Cu # 14
  position: [   0.62408699500000,  0.37408138000000,  0.74998603000000 ]
- symbol: Cu # 15
  position: [   0.12408699500000,  0.87408138000000,  0.74998603000000 ]
- symbol: Cu # 16
  position: [   0.62408699500000,  0.87408138000000,  0.74998603000000 ]
- symbol: Zn # 17
  position: [   0.37409137000000,  0.12405474500000,  0.24996464000000 ]
- symbol: Zn # 18
  position: [   0.87409137000000,  0.12405474500000,  0.24996464000000 ]
- symbol: Zn # 19
  position: [   0.37409137000000,  0.62405474500000,  0.24996464000000 ]
- symbol: Zn # 20
  position: [   0.87409137000000,  0.62405474500000,  0.24996464000000 ]
- symbol: Zn # 21
  position: [   0.37409137000000,  0.12405474500000,  0.74996464000000 ]
- symbol: Zn # 22
  position: [   0.87409137000000,  0.12405474500000,  0.74996464000000 ]
- symbol: Zn # 23
  position: [   0.37409137000000,  0.62405474500000,  0.74996464000000 ]
- symbol: Zn # 24
  position: [   0.87409137000000,  0.62405474500000,  0.74996464000000 ]
- symbol: Sn # 25
  position: [   0.24903673500000,  0.24902777000000,  0.49990870500000 ]
- symbol: Sn # 26
  position: [   0.74903673500000,  0.24902777000000,  0.49990870500000 ]
- symbol: Sn # 27
  position: [   0.24903673500000,  0.74902777000000,  0.49990870500000 ]
- symbol: Sn # 28
  position: [   0.74903673500000,  0.74902777000000,  0.49990870500000 ]
- symbol: Sn # 29
  position: [   0.24903673500000,  0.24902777000000,  0.99990870500000 ]
- symbol: Sn # 30
  position: [   0.74903673500000,  0.24902777000000,  0.99990870500000 ]
- symbol: Sn # 31
  position: [   0.24903673500000,  0.74902777000000,  0.99990870500000 ]
- symbol: Sn # 32
  position: [   0.74903673500000,  0.74902777000000,  0.99990870500000 ]
- symbol: S  # 33
  position: [   0.44880341449603,  0.18393634012864,  0.13011395597817 ]
- symbol: S  # 34
  position: [   0.94880341449603,  0.18393634012864,  0.13011395597817 ]
- symbol: S  # 35
  position: [   0.44880341449603,  0.68393634012864,  0.13011395597817 ]
- symbol: S  # 36
  position: [   0.94880341449603,  0.68393634012864,  0.13011395597817 ]
- symbol: S  # 37
  position: [   0.44880341449603,  0.18393634012864,  0.63011395597817 ]
- symbol: S  # 38
  position: [   0.94880341449603,  0.18393634012864,  0.63011395597817 ]
- symbol: S  # 39
  position: [   0.44880341449603,  0.68393634012864,  0.63011395597817 ]
- symbol: S  # 40
  position: [   0.94880341449603,  0.68393634012864,  0.63011395597817 ]
- symbol: S  # 41
  position: [   0.31432646487137,  0.31868413851786,  0.36984560402182 ]
- symbol: S  # 42
  position: [   0.81432646487137,  0.31868413851786,  0.36984560402182 ]
- symbol: S  # 43
  position: [   0.31432646487137,  0.81868413851786,  0.36984560402182 ]
- symbol: S  # 44
  position: [   0.81432646487137,  0.81868413851786,  0.36984560402182 ]
- symbol: S  # 45
  position: [   0.31432646487137,  0.31868413851786,  0.86984560402182 ]
- symbol: S  # 46
  position: [   0.81432646487137,  0.31868413851786,  0.86984560402182 ]
- symbol: S  # 47
  position: [   0.31432646487137,  0.81868413851786,  0.86984560402182 ]
- symbol: S  # 48
  position: [   0.81432646487137,  0.81868413851786,  0.86984560402182 ]
- symbol: S  # 49
  position: [   0.05376754415046,  0.04934909050396,  0.36987000402182 ]
- symbol: S  # 50
  position: [   0.55376754415046,  0.04934909050396,  0.36987000402182 ]
- symbol: S  # 51
  position: [   0.05376754415046,  0.54934909050396,  0.36987000402182 ]
- symbol: S  # 52
  position: [   0.55376754415046,  0.54934909050396,  0.36987000402182 ]
- symbol: S  # 53
  position: [   0.05376754415046,  0.04934909050396,  0.86987000402182 ]
- symbol: S  # 54
  position: [   0.55376754415046,  0.04934909050396,  0.86987000402182 ]
- symbol: S  # 55
  position: [   0.05376754415046,  0.54934909050396,  0.86987000402182 ]
- symbol: S  # 56
  position: [   0.55376754415046,  0.54934909050396,  0.86987000402182 ]
- symbol: S  # 57
  position: [   0.17955272648213,  0.44437879084954,  0.13010681097817 ]
- symbol: S  # 58
  position: [   0.67955272648213,  0.44437879084954,  0.13010681097817 ]
- symbol: S  # 59
  position: [   0.17955272648213,  0.94437879084954,  0.13010681097817 ]
- symbol: S  # 60
  position: [   0.67955272648213,  0.94437879084954,  0.13010681097817 ]
- symbol: S  # 61
  position: [   0.17955272648213,  0.44437879084954,  0.63010681097817 ]
- symbol: S  # 62
  position: [   0.67955272648213,  0.44437879084954,  0.63010681097817 ]
- symbol: S  # 63
  position: [   0.17955272648213,  0.94437879084954,  0.63010681097817 ]
- symbol: S  # 64
  position: [   0.67955272648213,  0.94437879084954,  0.63010681097817 ]
