# Sigma = 0.109891
       -1.1557166012        0.0000000000
       -1.1007711869        0.0000000000
       -1.0458257726        0.0000000000
       -0.9908803583        0.0000000000
       -0.9359349440        0.0000000000
       -0.8809895297        0.0000000000
       -0.8260441154        0.0000000000
       -0.7710987011        0.0000000000
       -0.7161532868        0.0000000000
       -0.6612078725        0.0000000001
       -0.6062624581        0.0000000008
       -0.5513170438        0.0000000087
       -0.4963716295        0.0000000756
       -0.4414262152        0.0000005126
       -0.3864808009        0.0000027232
       -0.3315353866        0.0000113904
       -0.2765899723        0.0000378266
       -0.2216445580        0.0001014859
       -0.1666991437        0.0002277233
       -0.1117537294        0.0004535927
       -0.0568083151        0.0008627666
       -0.0018629008        0.0016347869
        0.0530825135        0.0030410617
        0.1080279278        0.0053588036
        0.1629733421        0.0087854673
        0.2179187564        0.0134390577
        0.2728641707        0.0194103457
        0.3278095850        0.0267902786
        0.3827549993        0.0356689887
        0.4377004136        0.0461416573
        0.4926458279        0.0583224594
        0.5475912422        0.0723495761
        0.6025366565        0.0883849465
        0.6574820709        0.1066215639
        0.7124274852        0.1272974201
        0.7673728995        0.1507038243
        0.8223183138        0.1771895038
        0.8772637281        0.2071826856
        0.9322091424        0.2412258524
        0.9871545567        0.2799981435
        1.0420999710        0.3243575051
        1.0970453853        0.3754336139
        1.1519907996        0.4347403506
        1.2069362139        0.5043552908
        1.2618816282        0.5873272847
        1.3168270425        0.6885842611
        1.3717724568        0.8170483206
        1.4267178711        0.9898430288
        1.4816632854        1.2371715358
        1.5366086997        1.6002273932
        1.5915541140        2.1107406322
        1.6464995283        2.7543086234
        1.7014449426        3.4486416582
        1.7563903569        4.0745722313
        1.8113357712        4.5561256238
        1.8662811855        4.9319519873
        1.9212265999        5.3476924605
        1.9761720142        5.9469439888
        2.0311174285        6.7282281410
        2.0860628428        7.4922321072
        2.1410082571        7.9488142591
        2.1959536714        7.9148921900
        2.2508990857        7.4396860871
        2.3058445000        6.7510371868
        2.3607899143        6.0866781084
        2.4157353286        5.5704264422
        2.4706807429        5.2120394269
        2.5256261572        4.9784518444
        2.5805715715        4.8527226714
        2.6355169858        4.8417028935
        2.6904624001        4.9337703857
        2.7454078144        5.0415908666
        2.8003532287        4.9964484891
        2.8552986430        4.6351704964
        2.9102440573        3.9225765821
        2.9651894716        2.9910073629
        3.0201348859        2.0562609410
        3.0750803002        1.2953736836
        3.1300257145        0.7826355898
        3.1849711289        0.4982175359
        3.2399165432        0.3733618051
        3.2948619575        0.3365255074
        3.3498073718        0.3388311153
        3.4047527861        0.3560452653
        3.4596982004        0.3792649882
        3.5146436147        0.4062436128
        3.5695890290        0.4369829559
        3.6245344433        0.4721369273
        3.6794798576        0.5123083618
        3.7344252719        0.5574651068
        3.7893706862        0.6067843068
        3.8443161005        0.6593652573
        3.8992615148        0.7149559596
        3.9542069291        0.7728573623
        4.0091523434        0.8292197603
        4.0640977577        0.8765469345
        4.1190431720        0.9087103616
        4.1739885863        0.9286137182
        4.2289340006        0.9504781533
        4.2838794149        0.9918887910
        4.3388248292        1.0616677907
        4.3937702435        1.1577107371
        4.4487156579        1.2806201817
        4.5036610722        1.4483014236
        4.5586064865        1.6910241540
        4.6135519008        2.0285315163
        4.6684973151        2.4541516464
        4.7234427294        2.9463240152
        4.7783881437        3.4954466718
        4.8333335580        4.1033533199
        4.8882789723        4.7328833209
        4.9432243866        5.2565339993
        4.9981698009        5.4829859592
        5.0531152152        5.2644108316
        5.1080606295        4.5948259459
        5.1630060438        3.6200651906
        5.2179514581        2.5645302593
        5.2728968724        1.6321166800
        5.3278422867        0.9359110086
        5.3827877010        0.4863423417
        5.4377331153        0.2297249395
        5.4926785296        0.0979666591
        5.5476239439        0.0370065704
        5.6025693582        0.0120629599
        5.6575147725        0.0033071037
        5.7124601869        0.0007468825
        5.7674056012        0.0001368801
        5.8223510155        0.0000201468
        5.8772964298        0.0000023646
        5.9322418441        0.0000002202
        5.9871872584        0.0000000162
        6.0421326727        0.0000000009
        6.0970780870        0.0000000000
        6.1520235013        0.0000000000
        6.2069689156        0.0000000000
        6.2619143299        0.0000000000
        6.3168597442        0.0000000000
        6.3718051585        0.0000000000
        6.4267505728        0.0000000000
        6.4816959871        0.0000000000
        6.5366414014        0.0000000000
        6.5915868157        0.0000000000
        6.6465322300        0.0000000000
        6.7014776443        0.0000000000
        6.7564230586        0.0000000000
        6.8113684729        0.0000000000
        6.8663138872        0.0000000000
        6.9212593015        0.0000000000
        6.9762047159        0.0000000000
        7.0311501302        0.0000000000
        7.0860955445        0.0000000000
        7.1410409588        0.0000000000
        7.1959863731        0.0000000000
        7.2509317874        0.0000000000
        7.3058772017        0.0000000000
        7.3608226160        0.0000000000
        7.4157680303        0.0000000000
        7.4707134446        0.0000000001
        7.5256588589        0.0000000014
        7.5806042732        0.0000000232
        7.6355496875        0.0000003048
        7.6904951018        0.0000031667
        7.7454405161        0.0000260709
        7.8003859304        0.0001707924
        7.8553313447        0.0008953120
        7.9102767590        0.0037859738
        7.9652221733        0.0130716684
        8.0201675876        0.0375389594
        8.0751130019        0.0921918519
        8.1300584162        0.2010120458
        8.1850038305        0.4047282597
        8.2399492449        0.7708661714
        8.2948946592        1.3849490254
        8.3498400735        2.2990222839
        8.4047854878        3.4576870683
        8.4597309021        4.6743000427
        8.5146763164        5.7031888722
        8.5696217307        6.3588632503
        8.6245671450        6.5916873251
        8.6795125593        6.4774643033
        8.7344579736        6.1450183347
        8.7894033879        5.7122341443
        8.8443488022        5.2871945201
        8.8992942165        4.9961734446
        8.9542396308        4.9432141942
        9.0091850451        5.1001043185
        9.0641304594        5.2779912983
        9.1190758737        5.3025270732
        9.1740212880        5.2282443075
        9.2289667023        5.2737650826
        9.2839121166        5.5066550033
        9.3388575309        5.7037155445
        9.3938029452        5.5860490447
        9.4487483595        5.1060896159
        9.5036937739        4.4599192816
        9.5586391882        3.9182543324
        9.6135846025        3.6955911713
        9.6685300168        3.8647379537
        9.7234754311        4.2888088960
        9.7784208454        4.6879724069
        9.8333662597        4.8579844755
        9.8883116740        4.7974482996
        9.9432570883        4.5972551158
        9.9982025026        4.3198188786
       10.0531479169        4.0707046377
       10.1080933312        4.0349540160
       10.1630387455        4.2451944209
       10.2179841598        4.3930368339
       10.2729295741        4.0922022902
       10.3278749884        3.3255405431
       10.3828204027        2.4746295315
       10.4377658170        1.9310570247
       10.4927112313        1.8122831621
       10.5476566456        2.0240070395
       10.6026020599        2.4588111142
       10.6575474742        3.0829727607
       10.7124928885        3.8443383956
       10.7674383029        4.5138861535
       10.8223837172        4.7022108037
       10.8773291315        4.1532879381
       10.9322745458        3.0244827869
       10.9872199601        1.7872760034
       11.0421653744        0.8494806653
       11.0971107887        0.3230577060
       11.1520562030        0.0979811212
       11.2070016173        0.0236448985
       11.2619470316        0.0045319449
       11.3168924459        0.0006888490
       11.3718378602        0.0000829216
       11.4267832745        0.0000078955
       11.4817286888        0.0000005940
       11.5366741031        0.0000000353
       11.5916195174        0.0000000017
       11.6465649317        0.0000000001
       11.7015103460        0.0000000000
       11.7564557603        0.0000000000
       11.8114011746        0.0000000000
       11.8663465889        0.0000000000
       11.9212920032        0.0000000000
       11.9762374175        0.0000000000
       12.0311828319        0.0000000000
