natom:   96
displacements:
- atom:    1
  direction:
    [   1.0000000000000000,  0.0000000000000000,  0.0000000000000000 ]
  displacement:
    [   0.0100000000000000,  0.0000000000000000,  0.0000000000000000 ]
- atom:    1
  direction:
    [  -1.0000000000000000,  0.0000000000000000,  0.0000000000000000 ]
  displacement:
    [  -0.0100000000000000,  0.0000000000000000,  0.0000000000000000 ]
- atom:    1
  direction:
    [   0.0000000000000000,  1.0000000000000000,  0.0000000000000000 ]
  displacement:
    [   0.0000024767397939,  0.0099999996932880,  0.0000000000000000 ]
- atom:    1
  direction:
    [   0.0000000000000000, -1.0000000000000000,  0.0000000000000000 ]
  displacement:
    [  -0.0000024767397939, -0.0099999996932880,  0.0000000000000000 ]
- atom:    1
  direction:
    [   0.0000000000000000,  0.0000000000000000,  1.0000000000000000 ]
  displacement:
    [   0.0002192205163579, -0.0000005736116400,  0.0099975968130435 ]
- atom:    1
  direction:
    [   0.0000000000000000,  0.0000000000000000, -1.0000000000000000 ]
  displacement:
    [  -0.0002192205163579,  0.0000005736116400, -0.0099975968130435 ]
- atom:    9
  direction:
    [   1.0000000000000000,  0.0000000000000000,  0.0000000000000000 ]
  displacement:
    [   0.0100000000000000,  0.0000000000000000,  0.0000000000000000 ]
- atom:    9
  direction:
    [  -1.0000000000000000,  0.0000000000000000,  0.0000000000000000 ]
  displacement:
    [  -0.0100000000000000,  0.0000000000000000,  0.0000000000000000 ]
- atom:    9
  direction:
    [   0.0000000000000000,  1.0000000000000000,  0.0000000000000000 ]
  displacement:
    [   0.0000024767397939,  0.0099999996932880,  0.0000000000000000 ]
- atom:    9
  direction:
    [   0.0000000000000000, -1.0000000000000000,  0.0000000000000000 ]
  displacement:
    [  -0.0000024767397939, -0.0099999996932880,  0.0000000000000000 ]
- atom:    9
  direction:
    [   0.0000000000000000,  0.0000000000000000,  1.0000000000000000 ]
  displacement:
    [   0.0002192205163579, -0.0000005736116400,  0.0099975968130435 ]
- atom:    9
  direction:
    [   0.0000000000000000,  0.0000000000000000, -1.0000000000000000 ]
  displacement:
    [  -0.0002192205163579,  0.0000005736116400, -0.0099975968130435 ]
- atom:   17
  direction:
    [   1.0000000000000000,  0.0000000000000000,  0.0000000000000000 ]
  displacement:
    [   0.0100000000000000,  0.0000000000000000,  0.0000000000000000 ]
- atom:   17
  direction:
    [  -1.0000000000000000,  0.0000000000000000,  0.0000000000000000 ]
  displacement:
    [  -0.0100000000000000,  0.0000000000000000,  0.0000000000000000 ]
- atom:   17
  direction:
    [   0.0000000000000000,  1.0000000000000000,  0.0000000000000000 ]
  displacement:
    [   0.0000024767397939,  0.0099999996932880,  0.0000000000000000 ]
- atom:   17
  direction:
    [   0.0000000000000000, -1.0000000000000000,  0.0000000000000000 ]
  displacement:
    [  -0.0000024767397939, -0.0099999996932880,  0.0000000000000000 ]
- atom:   17
  direction:
    [   0.0000000000000000,  0.0000000000000000,  1.0000000000000000 ]
  displacement:
    [   0.0002192205163579, -0.0000005736116400,  0.0099975968130435 ]
- atom:   17
  direction:
    [   0.0000000000000000,  0.0000000000000000, -1.0000000000000000 ]
  displacement:
    [  -0.0002192205163579,  0.0000005736116400, -0.0099975968130435 ]
- atom:   25
  direction:
    [   1.0000000000000000,  0.0000000000000000,  0.0000000000000000 ]
  displacement:
    [   0.0100000000000000,  0.0000000000000000,  0.0000000000000000 ]
- atom:   25
  direction:
    [  -1.0000000000000000,  0.0000000000000000,  0.0000000000000000 ]
  displacement:
    [  -0.0100000000000000,  0.0000000000000000,  0.0000000000000000 ]
- atom:   25
  direction:
    [   0.0000000000000000,  1.0000000000000000,  0.0000000000000000 ]
  displacement:
    [   0.0000024767397939,  0.0099999996932880,  0.0000000000000000 ]
- atom:   25
  direction:
    [   0.0000000000000000, -1.0000000000000000,  0.0000000000000000 ]
  displacement:
    [  -0.0000024767397939, -0.0099999996932880,  0.0000000000000000 ]
- atom:   25
  direction:
    [   0.0000000000000000,  0.0000000000000000,  1.0000000000000000 ]
  displacement:
    [   0.0002192205163579, -0.0000005736116400,  0.0099975968130435 ]
- atom:   25
  direction:
    [   0.0000000000000000,  0.0000000000000000, -1.0000000000000000 ]
  displacement:
    [  -0.0002192205163579,  0.0000005736116400, -0.0099975968130435 ]
- atom:   33
  direction:
    [   1.0000000000000000,  0.0000000000000000,  0.0000000000000000 ]
  displacement:
    [   0.0100000000000000,  0.0000000000000000,  0.0000000000000000 ]
- atom:   33
  direction:
    [  -1.0000000000000000,  0.0000000000000000,  0.0000000000000000 ]
  displacement:
    [  -0.0100000000000000,  0.0000000000000000,  0.0000000000000000 ]
- atom:   33
  direction:
    [   0.0000000000000000,  1.0000000000000000,  0.0000000000000000 ]
  displacement:
    [   0.0000024767397939,  0.0099999996932880,  0.0000000000000000 ]
- atom:   33
  direction:
    [   0.0000000000000000, -1.0000000000000000,  0.0000000000000000 ]
  displacement:
    [  -0.0000024767397939, -0.0099999996932880,  0.0000000000000000 ]
- atom:   33
  direction:
    [   0.0000000000000000,  0.0000000000000000,  1.0000000000000000 ]
  displacement:
    [   0.0002192205163579, -0.0000005736116400,  0.0099975968130435 ]
- atom:   33
  direction:
    [   0.0000000000000000,  0.0000000000000000, -1.0000000000000000 ]
  displacement:
    [  -0.0002192205163579,  0.0000005736116400, -0.0099975968130435 ]
- atom:   41
  direction:
    [   1.0000000000000000,  0.0000000000000000,  0.0000000000000000 ]
  displacement:
    [   0.0100000000000000,  0.0000000000000000,  0.0000000000000000 ]
- atom:   41
  direction:
    [  -1.0000000000000000,  0.0000000000000000,  0.0000000000000000 ]
  displacement:
    [  -0.0100000000000000,  0.0000000000000000,  0.0000000000000000 ]
- atom:   41
  direction:
    [   0.0000000000000000,  1.0000000000000000,  0.0000000000000000 ]
  displacement:
    [   0.0000024767397939,  0.0099999996932880,  0.0000000000000000 ]
- atom:   41
  direction:
    [   0.0000000000000000, -1.0000000000000000,  0.0000000000000000 ]
  displacement:
    [  -0.0000024767397939, -0.0099999996932880,  0.0000000000000000 ]
- atom:   41
  direction:
    [   0.0000000000000000,  0.0000000000000000,  1.0000000000000000 ]
  displacement:
    [   0.0002192205163579, -0.0000005736116400,  0.0099975968130435 ]
- atom:   41
  direction:
    [   0.0000000000000000,  0.0000000000000000, -1.0000000000000000 ]
  displacement:
    [  -0.0002192205163579,  0.0000005736116400, -0.0099975968130435 ]
- atom:   49
  direction:
    [   1.0000000000000000,  0.0000000000000000,  0.0000000000000000 ]
  displacement:
    [   0.0100000000000000,  0.0000000000000000,  0.0000000000000000 ]
- atom:   49
  direction:
    [  -1.0000000000000000,  0.0000000000000000,  0.0000000000000000 ]
  displacement:
    [  -0.0100000000000000,  0.0000000000000000,  0.0000000000000000 ]
- atom:   49
  direction:
    [   0.0000000000000000,  1.0000000000000000,  0.0000000000000000 ]
  displacement:
    [   0.0000024767397939,  0.0099999996932880,  0.0000000000000000 ]
- atom:   49
  direction:
    [   0.0000000000000000, -1.0000000000000000,  0.0000000000000000 ]
  displacement:
    [  -0.0000024767397939, -0.0099999996932880,  0.0000000000000000 ]
- atom:   49
  direction:
    [   0.0000000000000000,  0.0000000000000000,  1.0000000000000000 ]
  displacement:
    [   0.0002192205163579, -0.0000005736116400,  0.0099975968130435 ]
- atom:   49
  direction:
    [   0.0000000000000000,  0.0000000000000000, -1.0000000000000000 ]
  displacement:
    [  -0.0002192205163579,  0.0000005736116400, -0.0099975968130435 ]
- atom:   57
  direction:
    [   1.0000000000000000,  0.0000000000000000,  0.0000000000000000 ]
  displacement:
    [   0.0100000000000000,  0.0000000000000000,  0.0000000000000000 ]
- atom:   57
  direction:
    [  -1.0000000000000000,  0.0000000000000000,  0.0000000000000000 ]
  displacement:
    [  -0.0100000000000000,  0.0000000000000000,  0.0000000000000000 ]
- atom:   57
  direction:
    [   0.0000000000000000,  1.0000000000000000,  0.0000000000000000 ]
  displacement:
    [   0.0000024767397939,  0.0099999996932880,  0.0000000000000000 ]
- atom:   57
  direction:
    [   0.0000000000000000, -1.0000000000000000,  0.0000000000000000 ]
  displacement:
    [  -0.0000024767397939, -0.0099999996932880,  0.0000000000000000 ]
- atom:   57
  direction:
    [   0.0000000000000000,  0.0000000000000000,  1.0000000000000000 ]
  displacement:
    [   0.0002192205163579, -0.0000005736116400,  0.0099975968130435 ]
- atom:   57
  direction:
    [   0.0000000000000000,  0.0000000000000000, -1.0000000000000000 ]
  displacement:
    [  -0.0002192205163579,  0.0000005736116400, -0.0099975968130435 ]
- atom:   65
  direction:
    [   1.0000000000000000,  0.0000000000000000,  0.0000000000000000 ]
  displacement:
    [   0.0100000000000000,  0.0000000000000000,  0.0000000000000000 ]
- atom:   65
  direction:
    [  -1.0000000000000000,  0.0000000000000000,  0.0000000000000000 ]
  displacement:
    [  -0.0100000000000000,  0.0000000000000000,  0.0000000000000000 ]
- atom:   65
  direction:
    [   0.0000000000000000,  1.0000000000000000,  0.0000000000000000 ]
  displacement:
    [   0.0000024767397939,  0.0099999996932880,  0.0000000000000000 ]
- atom:   65
  direction:
    [   0.0000000000000000, -1.0000000000000000,  0.0000000000000000 ]
  displacement:
    [  -0.0000024767397939, -0.0099999996932880,  0.0000000000000000 ]
- atom:   65
  direction:
    [   0.0000000000000000,  0.0000000000000000,  1.0000000000000000 ]
  displacement:
    [   0.0002192205163579, -0.0000005736116400,  0.0099975968130435 ]
- atom:   65
  direction:
    [   0.0000000000000000,  0.0000000000000000, -1.0000000000000000 ]
  displacement:
    [  -0.0002192205163579,  0.0000005736116400, -0.0099975968130435 ]
- atom:   73
  direction:
    [   1.0000000000000000,  0.0000000000000000,  0.0000000000000000 ]
  displacement:
    [   0.0100000000000000,  0.0000000000000000,  0.0000000000000000 ]
- atom:   73
  direction:
    [  -1.0000000000000000,  0.0000000000000000,  0.0000000000000000 ]
  displacement:
    [  -0.0100000000000000,  0.0000000000000000,  0.0000000000000000 ]
- atom:   73
  direction:
    [   0.0000000000000000,  1.0000000000000000,  0.0000000000000000 ]
  displacement:
    [   0.0000024767397939,  0.0099999996932880,  0.0000000000000000 ]
- atom:   73
  direction:
    [   0.0000000000000000, -1.0000000000000000,  0.0000000000000000 ]
  displacement:
    [  -0.0000024767397939, -0.0099999996932880,  0.0000000000000000 ]
- atom:   73
  direction:
    [   0.0000000000000000,  0.0000000000000000,  1.0000000000000000 ]
  displacement:
    [   0.0002192205163579, -0.0000005736116400,  0.0099975968130435 ]
- atom:   73
  direction:
    [   0.0000000000000000,  0.0000000000000000, -1.0000000000000000 ]
  displacement:
    [  -0.0002192205163579,  0.0000005736116400, -0.0099975968130435 ]
- atom:   81
  direction:
    [   1.0000000000000000,  0.0000000000000000,  0.0000000000000000 ]
  displacement:
    [   0.0100000000000000,  0.0000000000000000,  0.0000000000000000 ]
- atom:   81
  direction:
    [  -1.0000000000000000,  0.0000000000000000,  0.0000000000000000 ]
  displacement:
    [  -0.0100000000000000,  0.0000000000000000,  0.0000000000000000 ]
- atom:   81
  direction:
    [   0.0000000000000000,  1.0000000000000000,  0.0000000000000000 ]
  displacement:
    [   0.0000024767397939,  0.0099999996932880,  0.0000000000000000 ]
- atom:   81
  direction:
    [   0.0000000000000000, -1.0000000000000000,  0.0000000000000000 ]
  displacement:
    [  -0.0000024767397939, -0.0099999996932880,  0.0000000000000000 ]
- atom:   81
  direction:
    [   0.0000000000000000,  0.0000000000000000,  1.0000000000000000 ]
  displacement:
    [   0.0002192205163579, -0.0000005736116400,  0.0099975968130435 ]
- atom:   81
  direction:
    [   0.0000000000000000,  0.0000000000000000, -1.0000000000000000 ]
  displacement:
    [  -0.0002192205163579,  0.0000005736116400, -0.0099975968130435 ]
- atom:   89
  direction:
    [   1.0000000000000000,  0.0000000000000000,  0.0000000000000000 ]
  displacement:
    [   0.0100000000000000,  0.0000000000000000,  0.0000000000000000 ]
- atom:   89
  direction:
    [  -1.0000000000000000,  0.0000000000000000,  0.0000000000000000 ]
  displacement:
    [  -0.0100000000000000,  0.0000000000000000,  0.0000000000000000 ]
- atom:   89
  direction:
    [   0.0000000000000000,  1.0000000000000000,  0.0000000000000000 ]
  displacement:
    [   0.0000024767397939,  0.0099999996932880,  0.0000000000000000 ]
- atom:   89
  direction:
    [   0.0000000000000000, -1.0000000000000000,  0.0000000000000000 ]
  displacement:
    [  -0.0000024767397939, -0.0099999996932880,  0.0000000000000000 ]
- atom:   89
  direction:
    [   0.0000000000000000,  0.0000000000000000,  1.0000000000000000 ]
  displacement:
    [   0.0002192205163579, -0.0000005736116400,  0.0099975968130435 ]
- atom:   89
  direction:
    [   0.0000000000000000,  0.0000000000000000, -1.0000000000000000 ]
  displacement:
    [  -0.0002192205163579,  0.0000005736116400, -0.0099975968130435 ]
lattice:
- [   12.829148292599999,   0.000000000000000,   0.000000000000000 ]
- [    0.003147116200000,  12.706688491200000,   0.000000000000000 ]
- [    0.285055641800000,  -0.000745875600000,  13.000021272400000 ]
atoms:
- symbol: C  # 1
  position: [   0.19908840950000,  0.24993179750000,  0.23705598700000 ]
- symbol: C  # 2
  position: [   0.69908840950000,  0.24993179750000,  0.23705598700000 ]
- symbol: C  # 3
  position: [   0.19908840950000,  0.74993179750000,  0.23705598700000 ]
- symbol: C  # 4
  position: [   0.69908840950000,  0.74993179750000,  0.23705598700000 ]
- symbol: C  # 5
  position: [   0.19908840950000,  0.24993179750000,  0.73705598700000 ]
- symbol: C  # 6
  position: [   0.69908840950000,  0.24993179750000,  0.73705598700000 ]
- symbol: C  # 7
  position: [   0.19908840950000,  0.74993179750000,  0.73705598700000 ]
- symbol: C  # 8
  position: [   0.69908840950000,  0.74993179750000,  0.73705598700000 ]
- symbol: N  # 9
  position: [   0.30946159350000,  0.24997295450000,  0.26804709450000 ]
- symbol: N  # 10
  position: [   0.80946159350000,  0.24997295450000,  0.26804709450000 ]
- symbol: N  # 11
  position: [   0.30946159350000,  0.74997295450000,  0.26804709450000 ]
- symbol: N  # 12
  position: [   0.80946159350000,  0.74997295450000,  0.26804709450000 ]
- symbol: N  # 13
  position: [   0.30946159350000,  0.24997295450000,  0.76804709450000 ]
- symbol: N  # 14
  position: [   0.80946159350000,  0.24997295450000,  0.76804709450000 ]
- symbol: N  # 15
  position: [   0.30946159350000,  0.74997295450000,  0.76804709450000 ]
- symbol: N  # 16
  position: [   0.80946159350000,  0.74997295450000,  0.76804709450000 ]
- symbol: H  # 17
  position: [   0.19638614350000,  0.24982871100000,  0.15263919550000 ]
- symbol: H  # 18
  position: [   0.69638614350000,  0.24982871100000,  0.15263919550000 ]
- symbol: H  # 19
  position: [   0.19638614350000,  0.74982871100000,  0.15263919550000 ]
- symbol: H  # 20
  position: [   0.69638614350000,  0.74982871100000,  0.15263919550000 ]
- symbol: H  # 21
  position: [   0.19638614350000,  0.24982871100000,  0.65263919550000 ]
- symbol: H  # 22
  position: [   0.69638614350000,  0.24982871100000,  0.65263919550000 ]
- symbol: H  # 23
  position: [   0.19638614350000,  0.74982871100000,  0.65263919550000 ]
- symbol: H  # 24
  position: [   0.69638614350000,  0.74982871100000,  0.65263919550000 ]
- symbol: H  # 25
  position: [   0.16084866250000,  0.32093292450000,  0.26810807000000 ]
- symbol: H  # 26
  position: [   0.66084866250000,  0.32093292450000,  0.26810807000000 ]
- symbol: H  # 27
  position: [   0.16084866250000,  0.82093292450000,  0.26810807000000 ]
- symbol: H  # 28
  position: [   0.66084866250000,  0.82093292450000,  0.26810807000000 ]
- symbol: H  # 29
  position: [   0.16084866250000,  0.32093292450000,  0.76810807000000 ]
- symbol: H  # 30
  position: [   0.66084866250000,  0.32093292450000,  0.76810807000000 ]
- symbol: H  # 31
  position: [   0.16084866250000,  0.82093292450000,  0.76810807000000 ]
- symbol: H  # 32
  position: [   0.66084866250000,  0.82093292450000,  0.76810807000000 ]
- symbol: H  # 33
  position: [   0.16088789700000,  0.17900131650000,  0.26826480050000 ]
- symbol: H  # 34
  position: [   0.66088789700000,  0.17900131650000,  0.26826480050000 ]
- symbol: H  # 35
  position: [   0.16088789700000,  0.67900131650000,  0.26826480050000 ]
- symbol: H  # 36
  position: [   0.66088789700000,  0.67900131650000,  0.26826480050000 ]
- symbol: H  # 37
  position: [   0.16088789700000,  0.17900131650000,  0.76826480050000 ]
- symbol: H  # 38
  position: [   0.66088789700000,  0.17900131650000,  0.76826480050000 ]
- symbol: H  # 39
  position: [   0.16088789700000,  0.67900131650000,  0.76826480050000 ]
- symbol: H  # 40
  position: [   0.66088789700000,  0.67900131650000,  0.76826480050000 ]
- symbol: H  # 41
  position: [   0.34922596800000,  0.31660351150000,  0.24086415750000 ]
- symbol: H  # 42
  position: [   0.84922596800000,  0.31660351150000,  0.24086415750000 ]
- symbol: H  # 43
  position: [   0.34922596800000,  0.81660351150000,  0.24086415750000 ]
- symbol: H  # 44
  position: [   0.84922596800000,  0.81660351150000,  0.24086415750000 ]
- symbol: H  # 45
  position: [   0.34922596800000,  0.31660351150000,  0.74086415750000 ]
- symbol: H  # 46
  position: [   0.84922596800000,  0.31660351150000,  0.74086415750000 ]
- symbol: H  # 47
  position: [   0.34922596800000,  0.81660351150000,  0.74086415750000 ]
- symbol: H  # 48
  position: [   0.84922596800000,  0.81660351150000,  0.74086415750000 ]
- symbol: H  # 49
  position: [   0.34927767500000,  0.18331836150000,  0.24092866500000 ]
- symbol: H  # 50
  position: [   0.84927767500000,  0.18331836150000,  0.24092866500000 ]
- symbol: H  # 51
  position: [   0.34927767500000,  0.68331836150000,  0.24092866500000 ]
- symbol: H  # 52
  position: [   0.84927767500000,  0.68331836150000,  0.24092866500000 ]
- symbol: H  # 53
  position: [   0.34927767500000,  0.18331836150000,  0.74092866500000 ]
- symbol: H  # 54
  position: [   0.84927767500000,  0.18331836150000,  0.74092866500000 ]
- symbol: H  # 55
  position: [   0.34927767500000,  0.68331836150000,  0.74092866500000 ]
- symbol: H  # 56
  position: [   0.84927767500000,  0.68331836150000,  0.74092866500000 ]
- symbol: H  # 57
  position: [   0.31791695950000,  0.25001749400000,  0.34786167750000 ]
- symbol: H  # 58
  position: [   0.81791695950000,  0.25001749400000,  0.34786167750000 ]
- symbol: H  # 59
  position: [   0.31791695950000,  0.75001749400000,  0.34786167750000 ]
- symbol: H  # 60
  position: [   0.81791695950000,  0.75001749400000,  0.34786167750000 ]
- symbol: H  # 61
  position: [   0.31791695950000,  0.25001749400000,  0.84786167750000 ]
- symbol: H  # 62
  position: [   0.81791695950000,  0.25001749400000,  0.84786167750000 ]
- symbol: H  # 63
  position: [   0.31791695950000,  0.75001749400000,  0.84786167750000 ]
- symbol: H  # 64
  position: [   0.81791695950000,  0.75001749400000,  0.84786167750000 ]
- symbol: Pb # 65
  position: [   0.46780997500000,  0.00000355050000,  0.48768243200000 ]
- symbol: Pb # 66
  position: [   0.96780997500000,  0.00000355050000,  0.48768243200000 ]
- symbol: Pb # 67
  position: [   0.46780997500000,  0.50000355050000,  0.48768243200000 ]
- symbol: Pb # 68
  position: [   0.96780997500000,  0.50000355050000,  0.48768243200000 ]
- symbol: Pb # 69
  position: [   0.46780997500000,  0.00000355050000,  0.98768243200000 ]
- symbol: Pb # 70
  position: [   0.96780997500000,  0.00000355050000,  0.98768243200000 ]
- symbol: Pb # 71
  position: [   0.46780997500000,  0.50000355050000,  0.98768243200000 ]
- symbol: Pb # 72
  position: [   0.96780997500000,  0.50000355050000,  0.98768243200000 ]
- symbol: I  # 73
  position: [   0.44757187350000,  0.00000469400000,  0.23397393500000 ]
- symbol: I  # 74
  position: [   0.94757187350000,  0.00000469400000,  0.23397393500000 ]
- symbol: I  # 75
  position: [   0.44757187350000,  0.50000469400000,  0.23397393500000 ]
- symbol: I  # 76
  position: [   0.94757187350000,  0.50000469400000,  0.23397393500000 ]
- symbol: I  # 77
  position: [   0.44757187350000,  0.00000469400000,  0.73397393500000 ]
- symbol: I  # 78
  position: [   0.94757187350000,  0.00000469400000,  0.73397393500000 ]
- symbol: I  # 79
  position: [   0.44757187350000,  0.50000469400000,  0.73397393500000 ]
- symbol: I  # 80
  position: [   0.94757187350000,  0.50000469400000,  0.73397393500000 ]
- symbol: I  # 81
  position: [   0.44336000100000,  0.24999174500000,  0.00455481000000 ]
- symbol: I  # 82
  position: [   0.94336000100000,  0.24999174500000,  0.00455481000000 ]
- symbol: I  # 83
  position: [   0.44336000100000,  0.74999174500000,  0.00455481000000 ]
- symbol: I  # 84
  position: [   0.94336000100000,  0.74999174500000,  0.00455481000000 ]
- symbol: I  # 85
  position: [   0.44336000100000,  0.24999174500000,  0.50455481000000 ]
- symbol: I  # 86
  position: [   0.94336000100000,  0.24999174500000,  0.50455481000000 ]
- symbol: I  # 87
  position: [   0.44336000100000,  0.74999174500000,  0.50455481000000 ]
- symbol: I  # 88
  position: [   0.94336000100000,  0.74999174500000,  0.50455481000000 ]
- symbol: I  # 89
  position: [   0.20605428500000,  0.49998423450000,  0.46358621100000 ]
- symbol: I  # 90
  position: [   0.70605428500000,  0.49998423450000,  0.46358621100000 ]
- symbol: I  # 91
  position: [   0.20605428500000,  0.99998423450000,  0.46358621100000 ]
- symbol: I  # 92
  position: [   0.70605428500000,  0.99998423450000,  0.46358621100000 ]
- symbol: I  # 93
  position: [   0.20605428500000,  0.49998423450000,  0.96358621100000 ]
- symbol: I  # 94
  position: [   0.70605428500000,  0.49998423450000,  0.96358621100000 ]
- symbol: I  # 95
  position: [   0.20605428500000,  0.99998423450000,  0.96358621100000 ]
- symbol: I  # 96
  position: [   0.70605428500000,  0.99998423450000,  0.96358621100000 ]
