96   
72   

1    
  0.0100000000000000   0.0000000000000000   0.0000000000000000
  -0.4431035800    0.0001557200    0.0311807700
  -0.0010229300    0.0001014900    0.0001400600
  -0.0012960800    0.0001015500    0.0001006700
  -0.0010720100    0.0001014400    0.0001198600
  -0.0012250800    0.0001015100    0.0001060000
  -0.0011002100    0.0001014800    0.0001534100
  -0.0012167900    0.0001015000    0.0001004500
  -0.0011185600    0.0001014600    0.0001290600
   0.1841881800    0.0003103700    0.0272251000
  -0.0000259100    0.0002673500    0.0001471300
   0.0002464900    0.0002670700    0.0001524800
  -0.0000445100    0.0002676900    0.0001931300
   0.0001718000    0.0002671900    0.0001671000
   0.0000018000    0.0002673500    0.0001240600
   0.0001541400    0.0002671900    0.0001854800
   0.0000398000    0.0002672900    0.0001533100
   0.0425417900    0.0000713200    0.0121021600
  -0.0007617200    0.0000562200   -0.0008378600
  -0.0007563800    0.0000561500   -0.0008213300
  -0.0007509200    0.0000562100   -0.0008370300
  -0.0007863400    0.0000561300   -0.0008267000
  -0.0007075300    0.0000561500   -0.0008342700
  -0.0007543500    0.0000562400   -0.0008292100
  -0.0007534900    0.0000562100   -0.0008291100
   0.0857274600   -0.0908711800   -0.0417491500
  -0.0006604000    0.0003483100    0.0008467000
  -0.0006629200    0.0003430800    0.0008380900
  -0.0006642100    0.0003082700    0.0008636000
  -0.0006784300    0.0003155900    0.0008561900
  -0.0006841100    0.0003251300    0.0008597900
  -0.0006756200    0.0003226000    0.0008611000
  -0.0006864800    0.0003154300    0.0008509200
   0.0858574600    0.0907631200   -0.0421578300
  -0.0005126300   -0.0003398400    0.0006375400
  -0.0005152400   -0.0003346100    0.0006287400
  -0.0005166000   -0.0002998400    0.0006543400
  -0.0005306900   -0.0003071300    0.0006469100
  -0.0005363700   -0.0003166200    0.0006504800
  -0.0005278800   -0.0003141400    0.0006518900
  -0.0005387300   -0.0003069500    0.0006416500
   0.0183915800    0.0020440600    0.0037973000
  -0.0003423300   -0.0000663300   -0.0004915100
  -0.0005851000   -0.0002482300   -0.0004641400
  -0.0003806100    0.0000346800   -0.0005042000
  -0.0004917100   -0.0000562200   -0.0004133100
  -0.0004123700   -0.0000831600   -0.0005048200
  -0.0004853600   -0.0001345200   -0.0004674700
  -0.0004164600   -0.0000711400   -0.0004864000
   0.0183105600   -0.0019646600    0.0039764200
  -0.0004378500    0.0001473200   -0.0003202300
  -0.0006806800    0.0003296200   -0.0002927000
  -0.0004760400    0.0000459700   -0.0003329800
  -0.0005872200    0.0001374400   -0.0002421600
  -0.0005079000    0.0001641700   -0.0003334400
  -0.0005809300    0.0002158100   -0.0002961500
  -0.0005120100    0.0001522200   -0.0003150700
   0.0058162800    0.0001431900    0.0060360600
   0.0007447900    0.0001390000   -0.0002625800
   0.0006273000    0.0001390900   -0.0002685900
   0.0006961300    0.0001390000   -0.0002880000
   0.0005881600    0.0001390700   -0.0002863100
   0.0007127700    0.0001389900   -0.0002220700
   0.0006107800    0.0001390900   -0.0003177500
   0.0006980600    0.0001390100   -0.0002584500
   0.0011248600   -0.0006129100   -0.0004934400
   0.0013888300    0.0001497100   -0.0010010500
   0.0011251800    0.0004918000   -0.0004938900
   0.0013874000   -0.0002696700   -0.0010014400
   0.0010992900   -0.0001005900   -0.0011202100
   0.0013680800    0.0000312800   -0.0006097100
   0.0010991600   -0.0000193100   -0.0011196600
   0.0013682300   -0.0001513700   -0.0006091400
   0.0014590300    0.0005227400   -0.0033730500
   0.0021871200   -0.0005454600   -0.0034300300
   0.0014618200   -0.0017644000   -0.0033731600
   0.0021873200   -0.0007007400   -0.0034301000
   0.0021543700   -0.0005577900   -0.0035236600
   0.0020854100   -0.0006321900   -0.0034510500
   0.0021542200   -0.0006882400   -0.0035237600
   0.0020855300   -0.0006136900   -0.0034510600
  -0.0006813200    0.0000335900    0.0050120900
  -0.0007393900    0.0000330800    0.0046226700
  -0.0007580600    0.0000333200    0.0047069100
  -0.0008395800    0.0000332000    0.0046113500
  -0.0017179400    0.0000336700    0.0034898200
  -0.0008618700    0.0000331100    0.0046682100
  -0.0007582200    0.0000331300    0.0045836500
  -0.0008308500    0.0000331100    0.0046397600
   0.0011827600   -0.0000112200   -0.0001201200
   0.0006676400   -0.0000262800   -0.0002608500
   0.0011819600    0.0000023200   -0.0001187600
   0.0006674400    0.0000185000   -0.0002609700
   0.0009808400    0.0000989900   -0.0003841400
   0.0007241300    0.0000018700   -0.0002440300
   0.0009804600   -0.0001068700   -0.0003843600
   0.0007240700   -0.0000096400   -0.0002439300

1    
 -0.0100000000000000   0.0000000000000000   0.0000000000000000
   0.4246334000    0.0000368200   -0.0395395000
  -0.0012860900    0.0001014400    0.0001035500
  -0.0010100900    0.0001014400    0.0001442600
  -0.0012351400    0.0001015200    0.0001239200
  -0.0010808000    0.0001014500    0.0001380000
  -0.0012077300    0.0001014300    0.0000916600
  -0.0010894600    0.0001014800    0.0001439000
  -0.0011879800    0.0001014700    0.0001153500
  -0.1713752000    0.0002289400   -0.0232531400
   0.0001884300    0.0002671800    0.0001892500
  -0.0000865300    0.0002674900    0.0001848200
   0.0002077000    0.0002669100    0.0001430000
  -0.0000106300    0.0002672500    0.0001691200
   0.0001618200    0.0002672000    0.0002154600
   0.0000071900    0.0002674300    0.0001511800
   0.0001225900    0.0002672200    0.0001835100
  -0.0434086100    0.0000435100   -0.0116794300
  -0.0007552700    0.0000562100   -0.0008167500
  -0.0007598600    0.0000562700   -0.0008337300
  -0.0007656000    0.0000562100   -0.0008178100
  -0.0007301000    0.0000562900   -0.0008285100
  -0.0008085700    0.0000562700   -0.0008205900
  -0.0007620700    0.0000561900   -0.0008258000
  -0.0007629900    0.0000562100   -0.0008256800
  -0.0863662100    0.0937535400    0.0446880900
  -0.0007196700    0.0002788800    0.0008516400
  -0.0007161400    0.0002853500    0.0008604400
  -0.0007153700    0.0003197300    0.0008350400
  -0.0007008500    0.0003126500    0.0008422900
  -0.0006955300    0.0003028700    0.0008386900
  -0.0007037900    0.0003054700    0.0008373900
  -0.0006931000    0.0003124700    0.0008475000
  -0.0861999300   -0.0936240700    0.0446824200
  -0.0005719300   -0.0002703800    0.0006422600
  -0.0005683400   -0.0002768800    0.0006512800
  -0.0005674900   -0.0003111900    0.0006257600
  -0.0005531100   -0.0003041500    0.0006330400
  -0.0005477700   -0.0002944100    0.0006294700
  -0.0005560300   -0.0002969800    0.0006280600
  -0.0005453400   -0.0003039700    0.0006382200
  -0.0186427500   -0.0020523100   -0.0046527600
  -0.0005315100   -0.0001158300   -0.0004719400
  -0.0002851300    0.0000668700   -0.0005003700
  -0.0004916100   -0.0002204900   -0.0004599900
  -0.0003793800   -0.0001274700   -0.0005511800
  -0.0004584000   -0.0000988900   -0.0004597400
  -0.0003855400   -0.0000486100   -0.0004969700
  -0.0004549500   -0.0001126900   -0.0004777600
  -0.0187525800    0.0021352700   -0.0044889800
  -0.0006271000    0.0001971200   -0.0003005600
  -0.0003806300    0.0000140000   -0.0003291500
  -0.0005872800    0.0003021100   -0.0002885600
  -0.0004749800    0.0002085400   -0.0003796600
  -0.0005539700    0.0001801700   -0.0002884700
  -0.0004810700    0.0001295900   -0.0003256400
  -0.0005505000    0.0001938700   -0.0003064300
  -0.0043035300    0.0001350400   -0.0064091300
   0.0005950600    0.0001390500   -0.0003067700
   0.0007128300    0.0001389700   -0.0003020200
   0.0006444100    0.0001390600   -0.0002812000
   0.0007531300    0.0001389800   -0.0002824800
   0.0006241900    0.0001390700   -0.0003527400
   0.0007298800    0.0001389700   -0.0002525200
   0.0006419200    0.0001390500   -0.0003127500
   0.0012048700    0.0004941900   -0.0010935000
   0.0009488200   -0.0002705700   -0.0005813400
   0.0012039300   -0.0006140600   -0.0010928300
   0.0009504300    0.0001507700   -0.0005812600
   0.0012311800   -0.0000162800   -0.0004607300
   0.0009666800   -0.0001581500   -0.0009785500
   0.0012311800   -0.0001035500   -0.0004614000
   0.0009667100    0.0000384900   -0.0009789200
   0.0027585300   -0.0017538200   -0.0035398100
   0.0020488200   -0.0006921000   -0.0034833900
   0.0027558000    0.0005036600   -0.0035397200
   0.0020486200   -0.0005535900   -0.0034833600
   0.0020765700   -0.0006883700   -0.0033881600
   0.0021449900   -0.0006129400   -0.0034601100
   0.0020766600   -0.0005575300   -0.0033880800
   0.0021448500   -0.0006330800   -0.0034600800
  -0.0009330800    0.0000327100    0.0042571300
  -0.0008630200    0.0000332800    0.0046527800
  -0.0008531100    0.0000330500    0.0045561500
  -0.0007717100    0.0000331600    0.0046528200
   0.0000931500    0.0000326700    0.0057581500
  -0.0007475700    0.0000332000    0.0045904500
  -0.0008527900    0.0000332200    0.0046802100
  -0.0007809700    0.0000332600    0.0046231800
   0.0005794200   -0.0000009700   -0.0003988100
   0.0011003300    0.0000186600   -0.0002545000
   0.0005802700   -0.0000056500   -0.0004001600
   0.0011005200   -0.0000264500   -0.0002544000
   0.0007809000   -0.0001085000   -0.0001296100
   0.0010446700   -0.0000098800   -0.0002712300
   0.0007813100    0.0001008700   -0.0001294200
   0.0010447100    0.0000021000   -0.0002713500

1    
  0.0000024767397939   0.0099999996932880   0.0000000000000000
   0.0059726300   -0.5580195100   -0.0070884200
  -0.0011549500    0.0001410700    0.0001210200
  -0.0011568500    0.0001604200    0.0001203100
  -0.0011553000    0.0000646000    0.0001206600
  -0.0011563700    0.0001108400    0.0001204200
  -0.0011556000    0.0001022800    0.0001205900
  -0.0011561900    0.0000923200    0.0001209300
  -0.0011558000    0.0001002100    0.0001208600
  -0.0003445400    0.0862494500    0.0004703100
   0.0000789900    0.0002852400    0.0001686700
   0.0000804900    0.0004001300    0.0001694500
   0.0000785400    0.0001091700    0.0001698700
   0.0000800400    0.0002575000    0.0001701600
   0.0000788000    0.0002699800    0.0001695000
   0.0000798700    0.0002779700    0.0001698100
   0.0000793300    0.0002650400    0.0001695600
  -0.0009355200    0.0429107900    0.0007380400
  -0.0007579800    0.0000559800   -0.0008257500
  -0.0007580100    0.0000427200   -0.0008256900
  -0.0007579000    0.0000557800   -0.0008258500
  -0.0007581100    0.0000387900   -0.0008258200
  -0.0007578300    0.0000562900   -0.0008257100
  -0.0007579900    0.0000758800   -0.0008256800
  -0.0007579400    0.0000565700   -0.0008256800
  -0.0855088000    0.2231408100    0.0854139200
  -0.0007115200    0.0003109000    0.0008413700
  -0.0007045400    0.0003201700    0.0008488100
  -0.0006605600    0.0003126300    0.0008576500
  -0.0006853500    0.0003145000    0.0008592900
  -0.0006887100    0.0003126700    0.0008481300
  -0.0006946300    0.0003081100    0.0008316000
  -0.0006881100    0.0003120500    0.0008480700
   0.0775762900    0.2135554900   -0.0784916900
  -0.0005181700   -0.0003050000    0.0006460900
  -0.0005250100   -0.0002963700    0.0006385000
  -0.0005683900   -0.0003038900    0.0006301700
  -0.0005442200   -0.0003015500    0.0006281400
  -0.0005407000   -0.0003036700    0.0006391700
  -0.0005349900   -0.0003083700    0.0006557000
  -0.0005412500   -0.0003044100    0.0006391800
   0.0241681700   -0.0052957100    0.0092398300
  -0.0005179700   -0.0001642100   -0.0004806400
  -0.0005647600   -0.0002298600   -0.0004532800
  -0.0003544600    0.0000574700   -0.0005102000
  -0.0004323700   -0.0000844400   -0.0004766200
  -0.0004365800   -0.0000944100   -0.0004847500
  -0.0004360700   -0.0000988200   -0.0004895200
  -0.0004327200   -0.0000873900   -0.0004827000
  -0.0250086700   -0.0050721500   -0.0101166200
  -0.0004445000    0.0001010000   -0.0003117000
  -0.0004025800    0.0000351400   -0.0003396300
  -0.0006099300    0.0003184100   -0.0002829900
  -0.0005333300    0.0001794100   -0.0003165000
  -0.0005286800    0.0001698400   -0.0003093600
  -0.0005293800    0.0001640300   -0.0003032200
  -0.0005324500    0.0001753400   -0.0003101900
   0.0007300100    0.0006378700   -0.0002872600
   0.0006720500    0.0001251000   -0.0002836600
   0.0006707900    0.0001482900   -0.0002836000
   0.0006709900    0.0001474800   -0.0002843300
   0.0006703900    0.0001557800   -0.0002846800
   0.0006714600    0.0001415500   -0.0002833000
   0.0006705400    0.0001156600   -0.0002846600
   0.0006710300    0.0001365300   -0.0002843000
   0.0010941200   -0.0000747200   -0.0006187500
   0.0013821000    0.0000654100   -0.0010732000
   0.0012414300   -0.0000776500   -0.0009597400
   0.0009481200    0.0000552000   -0.0005154400
   0.0012679100   -0.0000586200   -0.0010051600
   0.0010190300   -0.0000578300   -0.0005977400
   0.0010661500   -0.0000594300   -0.0005869600
   0.0013131000   -0.0000615300   -0.0009838500
   0.0020480700    0.0001815500   -0.0033349200
   0.0022017000   -0.0006420600   -0.0035044800
   0.0021657800    0.0001517700   -0.0035749300
   0.0020305600   -0.0006408400   -0.0034085400
   0.0021183500   -0.0006278800   -0.0034325600
   0.0021158000   -0.0006226900   -0.0034252000
   0.0021124200   -0.0006272300   -0.0034790500
   0.0021152300   -0.0006214900   -0.0034861400
  -0.0008077800   -0.0000978800    0.0046332500
  -0.0008065800    0.0000382100    0.0046299100
  -0.0008060500    0.0001294100    0.0046321500
  -0.0008063500    0.0000188300    0.0046310200
  -0.0008045000   -0.0000501400    0.0046336700
  -0.0008084900    0.0001429400    0.0046341600
  -0.0008064200    0.0000574400    0.0046307500
  -0.0008062200   -0.0000368000    0.0046314400
   0.0009021100    0.0002817000    0.0001568200
   0.0009133900   -0.0000013400   -0.0002552600
   0.0008697100    0.0002903400   -0.0006843300
   0.0008501500   -0.0000023100   -0.0002607300
   0.0008075700    0.0001761100   -0.0004064700
   0.0009197000   -0.0000057000   -0.0002604600
   0.0009621600    0.0001778900   -0.0001063200
   0.0008436000   -0.0000061400   -0.0002546400

1    
 -0.0000024767397939  -0.0099999996932880   0.0000000000000000
   0.0060680000    0.5581858100   -0.0071285300
  -0.0011555200    0.0000619000    0.0001212600
  -0.0011573700    0.0000425300    0.0001205800
  -0.0011557800    0.0001383500    0.0001207300
  -0.0011569500    0.0000920400    0.0001206600
  -0.0011562100    0.0001006800    0.0001207200
  -0.0011567000    0.0001106700    0.0001208600
  -0.0011563300    0.0001027300    0.0001208800
  -0.0004811200   -0.0857131600    0.0004358900
   0.0000808300    0.0002492600    0.0001689200
   0.0000821200    0.0001344200    0.0001696100
   0.0000798100    0.0004253300    0.0001703600
   0.0000815100    0.0002769800    0.0001704900
   0.0000804900    0.0002645600    0.0001699400
   0.0000814500    0.0002565500    0.0001700700
   0.0000809600    0.0002694900    0.0001698600
  -0.0009562400   -0.0427906000    0.0001497200
  -0.0007582100    0.0000564200   -0.0008264800
  -0.0007582900    0.0000696900   -0.0008264400
  -0.0007581000    0.0000566300   -0.0008266100
  -0.0007582900    0.0000736000   -0.0008265000
  -0.0007581500    0.0000561200   -0.0008265000
  -0.0007582300    0.0000365400   -0.0008264700
  -0.0007582000    0.0000558400   -0.0008264800
   0.0774822500   -0.2138413600   -0.0779555500
  -0.0006665000    0.0003140200    0.0008555600
  -0.0006732500    0.0003054700    0.0008479200
  -0.0007167200    0.0003128700    0.0008396500
  -0.0006924700    0.0003107000    0.0008375600
  -0.0006889500    0.0003127500    0.0008486400
  -0.0006832400    0.0003173400    0.0008652200
  -0.0006895500    0.0003134400    0.0008487100
  -0.0852945800   -0.2228074700    0.0855492600
  -0.0005643700   -0.0003030100    0.0006323000
  -0.0005572800   -0.0003123300    0.0006397000
  -0.0005134100   -0.0003047000    0.0006485900
  -0.0005381200   -0.0003067400    0.0006501700
  -0.0005415000   -0.0003048500    0.0006391100
  -0.0005474000   -0.0003001500    0.0006225900
  -0.0005409000   -0.0003041200    0.0006390500
  -0.0249204400    0.0051266500   -0.0102876100
  -0.0003491300   -0.0000208400   -0.0004824900
  -0.0003071900    0.0000451900   -0.0005104400
  -0.0005145000   -0.0002377700   -0.0004539500
  -0.0004379000   -0.0000988900   -0.0004874800
  -0.0004333200   -0.0000893600   -0.0004801400
  -0.0004341100   -0.0000838400   -0.0004740900
  -0.0004371800   -0.0000951600   -0.0004810600
   0.0240640800    0.0054032500    0.0094111000
  -0.0006136900    0.0002462900   -0.0003087700
  -0.0006604500    0.0003117200   -0.0002814300
  -0.0004501200    0.0000241000   -0.0003385100
  -0.0005280300    0.0001661500   -0.0003049300
  -0.0005323100    0.0001761500   -0.0003128700
  -0.0005318900    0.0001808600   -0.0003177600
  -0.0005285300    0.0001694300   -0.0003109300
   0.0006870700   -0.0003600000   -0.0002966700
   0.0006720100    0.0001529300   -0.0002851100
   0.0006709900    0.0001297400   -0.0002847900
   0.0006710300    0.0001305500   -0.0002855400
   0.0006706400    0.0001222500   -0.0002862700
   0.0006715100    0.0001364900   -0.0002847400
   0.0006706800    0.0001623700   -0.0002856900
   0.0006711700    0.0001415100   -0.0002854100
   0.0012415000   -0.0000426700   -0.0009606600
   0.0009485900   -0.0001761700   -0.0005154400
   0.0010937600   -0.0000455300   -0.0006192800
   0.0013824800   -0.0001842500   -0.0010734600
   0.0010660400   -0.0000617100   -0.0005859200
   0.0013133300   -0.0000590800   -0.0009836400
   0.0012677000   -0.0000599800   -0.0010042800
   0.0010192200   -0.0000613400   -0.0005974600
   0.0021655700   -0.0014001900   -0.0035757700
   0.0020312700   -0.0006047600   -0.0034085700
   0.0020479300   -0.0014249700   -0.0033358200
   0.0022024300   -0.0006042900   -0.0035045300
   0.0021126700   -0.0006186200   -0.0034789400
   0.0021153200   -0.0006243000   -0.0034861400
   0.0021185000   -0.0006182900   -0.0034324600
   0.0021158800   -0.0006234600   -0.0034251900
  -0.0008083800    0.0001641400    0.0046331500
  -0.0008057000    0.0000279000    0.0046303400
  -0.0008059700   -0.0000630400    0.0046319100
  -0.0008061900    0.0000475300    0.0046310300
  -0.0008047300    0.0001164800    0.0046334800
  -0.0008077100   -0.0000766500    0.0046336900
  -0.0008062700    0.0000089000    0.0046309000
  -0.0008060300    0.0001031800    0.0046314600
   0.0008694500   -0.0002962000   -0.0006815500
   0.0008505400   -0.0000055800   -0.0002606300
   0.0009019400   -0.0002913700    0.0001595700
   0.0009137700   -0.0000063800   -0.0002551700
   0.0009620000   -0.0001851000   -0.0001074400
   0.0008438800   -0.0000018500   -0.0002545700
   0.0008074200   -0.0001844500   -0.0004076200
   0.0009199400   -0.0000018900   -0.0002604300

1    
  0.0002192205163579  -0.0000005736116400   0.0099975968130435
   0.0252989500    0.0001764900   -0.5359031200
  -0.0011334600    0.0001013700    0.0000750100
  -0.0011802000    0.0001013500    0.0000535600
  -0.0011547000    0.0001014600    0.0000812800
  -0.0011728600    0.0001013400    0.0001268300
  -0.0011222700    0.0001014600    0.0000969000
  -0.0011779600    0.0001015500    0.0001152200
  -0.0011469400    0.0001014900    0.0001280500
   0.0298036100    0.0002646700    0.0940705300
   0.0000436400    0.0002672600    0.0001752800
   0.0001629600    0.0002670200    0.0001410600
   0.0000760500    0.0002672800    0.0001453100
   0.0001277200    0.0002672400    0.0002334000
   0.0000483500    0.0002672600    0.0000828300
   0.0000997300    0.0002672300    0.0001865500
   0.0000695300    0.0002672600    0.0001666100
  -0.0009474100    0.0003325800    0.2892964300
  -0.0007407300    0.0000562700   -0.0008445800
  -0.0007584800    0.0000563200   -0.0008378900
  -0.0007514800    0.0000562500   -0.0008372200
  -0.0007400300    0.0000562800   -0.0008290900
  -0.0007879900    0.0000562600   -0.0008230000
  -0.0007508300    0.0000561600   -0.0008264900
  -0.0007583700    0.0000562200   -0.0008241500
  -0.0358428600    0.0773806400    0.0785024100
  -0.0006639200    0.0003206100    0.0008747000
  -0.0006841600    0.0002998600    0.0008752700
  -0.0006665300    0.0003057400    0.0008717400
  -0.0006855700    0.0002939700    0.0008656600
  -0.0006916300    0.0003058700    0.0008417000
  -0.0006792000    0.0003176700    0.0008568000
  -0.0006895200    0.0003139600    0.0008459500
  -0.0358852800   -0.0777246000    0.0786628100
  -0.0005162400   -0.0003121000    0.0006655400
  -0.0005364200   -0.0002914100    0.0006661500
  -0.0005187900   -0.0002972400    0.0006625300
  -0.0005377900   -0.0002854700    0.0006564800
  -0.0005438600   -0.0002974100    0.0006324600
  -0.0005315000   -0.0003091400    0.0006474400
  -0.0005417600   -0.0003054600    0.0006366700
  -0.0096089400    0.0039102100   -0.0048451400
  -0.0004633400   -0.0001183500   -0.0005234600
  -0.0005276700   -0.0002117700   -0.0004797500
  -0.0004479000   -0.0001614600   -0.0004879300
  -0.0004406800   -0.0001410000   -0.0005096700
  -0.0004453600   -0.0001269700   -0.0004747100
  -0.0004470000   -0.0000868300   -0.0004750400
  -0.0004273600   -0.0000778400   -0.0004814600
  -0.0096649100   -0.0038329600   -0.0046584500
  -0.0005590600    0.0001995900   -0.0003520400
  -0.0006235000    0.0002932800   -0.0003082200
  -0.0005433800    0.0002425200   -0.0003166000
  -0.0005363100    0.0002221200   -0.0003382600
  -0.0005409100    0.0002081200   -0.0003033600
  -0.0005425300    0.0001680700   -0.0003038000
  -0.0005229100    0.0001590000   -0.0003101500
   0.0333015700    0.0001494500    0.0017011700
   0.0006788100    0.0001390200   -0.0002150100
   0.0006765100    0.0001390200   -0.0001974800
   0.0006897600    0.0001390300   -0.0002252000
   0.0005537500    0.0001389100   -0.0002840100
   0.0007539300    0.0001390100   -0.0001385300
   0.0006249800    0.0001391900   -0.0003217200
   0.0006735900    0.0001390400   -0.0002850900
   0.0011161800    0.0001307100   -0.0004813200
   0.0012373500   -0.0000025100   -0.0006629500
   0.0011155100   -0.0002513000   -0.0004812200
   0.0012379500   -0.0001178900   -0.0006640100
   0.0010797500    0.0000044800   -0.0011176600
   0.0013415900    0.0002074600   -0.0009236300
   0.0010808200   -0.0001240400   -0.0011180500
   0.0013396500   -0.0003268300   -0.0009236400
   0.0018513000    0.0001635800   -0.0033602800
   0.0022454600   -0.0005040700   -0.0034118300
   0.0018515300   -0.0014086800   -0.0033607200
   0.0022450600   -0.0007416400   -0.0034126700
   0.0021317100   -0.0006594900   -0.0034220400
   0.0021087200   -0.0006476500   -0.0034799500
   0.0021315200   -0.0005865300   -0.0034221600
   0.0021088800   -0.0005983000   -0.0034795000
  -0.0011155000    0.0000332300    0.0051613200
  -0.0008933100    0.0000333000    0.0045476700
  -0.0007759500    0.0000331200    0.0047195000
  -0.0008293300    0.0000330600    0.0046681200
  -0.0001587200    0.0000325500    0.0058617100
  -0.0009276900    0.0000330600    0.0046905400
  -0.0007906800    0.0000330500    0.0045720700
  -0.0008273400    0.0000332800    0.0045957800
   0.0010649800    0.0005031200    0.0001462300
   0.0008788600    0.0000129300   -0.0003006900
   0.0010649100   -0.0005137100    0.0001481900
   0.0008787600   -0.0000207000   -0.0003008300
   0.0008873800    0.0000428400   -0.0002080800
   0.0008153600    0.0000205000   -0.0002256100
   0.0008868400   -0.0000505600   -0.0002085300
   0.0008155100   -0.0000282800   -0.0002254600

1    
 -0.0002192205163579   0.0000005736116400  -0.0099975968130435
  -0.0264351000    0.0000875700    0.5591721800
  -0.0011753600    0.0001016000    0.0001688100
  -0.0011299800    0.0001016400    0.0001896500
  -0.0011538100    0.0001015100    0.0001621500
  -0.0011372900    0.0001015800    0.0001165100
  -0.0011860600    0.0001014900    0.0001464000
  -0.0011313200    0.0001014600    0.0001278900
  -0.0011617200    0.0001014600    0.0001151300
  -0.0289573200    0.0002678900   -0.0944061300
   0.0001153700    0.0002672800    0.0001595300
  -0.0000037200    0.0002675400    0.0001937000
   0.0000819400    0.0002673300    0.0001896800
   0.0000320000    0.0002672000    0.0001010600
   0.0001086900    0.0002673100    0.0002483300
   0.0000599400    0.0002674000    0.0001473000
   0.0000894200    0.0002672600    0.0001670800
  -0.0016439200   -0.0002476800   -0.3102039900
  -0.0007751200    0.0000561600   -0.0008072200
  -0.0007579300    0.0000561200   -0.0008136500
  -0.0007646800    0.0000561900   -0.0008145400
  -0.0007761300    0.0000561400   -0.0008225800
  -0.0007281400    0.0000561600   -0.0008287700
  -0.0007652300    0.0000562700   -0.0008253200
  -0.0007577700    0.0000562100   -0.0008276400
   0.0339493800   -0.0758656600   -0.0785072700
  -0.0007141800    0.0003048700    0.0008221400
  -0.0006937200    0.0003258100    0.0008211700
  -0.0007113200    0.0003198400    0.0008252100
  -0.0006922100    0.0003312900    0.0008320200
  -0.0006861200    0.0003199600    0.0008555600
  -0.0006985300    0.0003080300    0.0008408500
  -0.0006882600    0.0003115700    0.0008513700
   0.0342727100    0.0761958100   -0.0790785500
  -0.0005663700   -0.0002964300    0.0006127800
  -0.0005459700   -0.0003173200    0.0006117600
  -0.0005635600   -0.0003113500    0.0006158700
  -0.0005444900   -0.0003228300    0.0006226500
  -0.0005383900   -0.0003114600    0.0006462700
  -0.0005507300   -0.0002995800    0.0006316800
  -0.0005405100   -0.0003030800    0.0006421000
   0.0086868500   -0.0040562400    0.0039275400
  -0.0004061500   -0.0000668500   -0.0004408700
  -0.0003436000    0.0000272800   -0.0004841100
  -0.0004225900   -0.0000218400   -0.0004756400
  -0.0004310300   -0.0000433000   -0.0004530100
  -0.0004256900   -0.0000575300   -0.0004882100
  -0.0004247400   -0.0000986600   -0.0004877800
  -0.0004439600   -0.0001072600   -0.0004816000
   0.0085524000    0.0041414500    0.0040835000
  -0.0005015100    0.0001478500   -0.0002696500
  -0.0004388500    0.0000534800   -0.0003129800
  -0.0005182200    0.0001030900   -0.0003043300
  -0.0005265000    0.0001244500   -0.0002817500
  -0.0005212200    0.0001386500   -0.0003169200
  -0.0005203000    0.0001797000   -0.0003163800
  -0.0005395100    0.0001883800   -0.0003102700
  -0.0315661400    0.0001288300   -0.0020411300
   0.0006621800    0.0001390300   -0.0003581100
   0.0006650500    0.0001390400   -0.0003746400
   0.0006515800    0.0001390400   -0.0003474900
   0.0007855900    0.0001391400   -0.0002865200
   0.0005898200    0.0001390600   -0.0004281000
   0.0007158800    0.0001388800   -0.0002489700
   0.0006683600    0.0001390200   -0.0002855900
   0.0012212800   -0.0002567300   -0.0011042700
   0.0010910400   -0.0001182200   -0.0009228000
   0.0012215200    0.0001363400   -0.0011040500
   0.0010903700   -0.0000012100   -0.0009220200
   0.0012516500   -0.0001278700   -0.0004653600
   0.0009978500   -0.0003212700   -0.0006567700
   0.0012504500    0.0000077500   -0.0004652000
   0.0009998300    0.0002009400   -0.0006567700
   0.0023765400   -0.0014036300   -0.0035501700
   0.0019854800   -0.0007425100   -0.0034961600
   0.0023763300    0.0001567900   -0.0035497500
   0.0019859400   -0.0005037300   -0.0034953400
   0.0020990900   -0.0005855600   -0.0034913200
   0.0021215800   -0.0005983500   -0.0034339200
   0.0020991800   -0.0006603600   -0.0034912200
   0.0021214000   -0.0006475800   -0.0034343500
  -0.0005101700    0.0000330900    0.0041193800
  -0.0007187000    0.0000330900    0.0047144200
  -0.0008359000    0.0000332600    0.0045432400
  -0.0007836500    0.0000333100    0.0045943800
  -0.0014771600    0.0000338300    0.0033763700
  -0.0006814800    0.0000332700    0.0045703700
  -0.0008220200    0.0000333000    0.0046907900
  -0.0007843500    0.0000331100    0.0046673800
   0.0007042800   -0.0005182600   -0.0006665700
   0.0008863100   -0.0000211000   -0.0002133100
   0.0007044300    0.0005133400   -0.0006685300
   0.0008863900    0.0000132800   -0.0002131800
   0.0008804700   -0.0000499000   -0.0003073400
   0.0009494700   -0.0000283800   -0.0002894500
   0.0008810500    0.0000421000   -0.0003069600
   0.0009493000    0.0000206100   -0.0002896300

9    
  0.0100000000000000   0.0000000000000000   0.0000000000000000
   0.1704076600    0.0001243700    0.0238197800
  -0.0012636600    0.0001014100    0.0000895900
  -0.0009888900    0.0001014500    0.0002026700
  -0.0012815700    0.0001016600    0.0001222900
  -0.0010643800    0.0001015200    0.0001683700
  -0.0012360400    0.0001014700    0.0000947000
  -0.0010819500    0.0001014600    0.0001413000
  -0.0011969900    0.0001014700    0.0001139500
  -0.4959326700    0.0002292200    0.0244948300
   0.0001499100    0.0002672900    0.0001914500
  -0.0001804100    0.0002670200    0.0001966700
   0.0002669800    0.0002666700    0.0001371800
   0.0000011900    0.0002673400    0.0002312300
   0.0002014200    0.0002672700    0.0002742800
  -0.0000075900    0.0002673500    0.0001362400
   0.0001382000    0.0002671400    0.0001837200
   0.0086348200    0.0000569400    0.0009489500
  -0.0007549900    0.0000561500   -0.0008275300
  -0.0007600200    0.0000562500   -0.0008293600
  -0.0007696300    0.0000562500   -0.0008143300
  -0.0007323100    0.0000561800   -0.0008212300
  -0.0008147600    0.0000562700   -0.0008104100
  -0.0007569600    0.0000562900   -0.0008278100
  -0.0007658300    0.0000562300   -0.0008261400
   0.0217214900    0.0029122400    0.0085290900
  -0.0006940000    0.0003303200    0.0008570800
  -0.0007137200    0.0002962700    0.0008376200
  -0.0007276200    0.0003098600    0.0008270400
  -0.0006986000    0.0003205900    0.0008400900
  -0.0006971400    0.0003046000    0.0008300700
  -0.0006982600    0.0003110600    0.0008431500
  -0.0006974800    0.0003114200    0.0008478300
   0.0218629300   -0.0028793100    0.0083286500
  -0.0005463300   -0.0003218500    0.0006477500
  -0.0005660900   -0.0002877800    0.0006283500
  -0.0005795800   -0.0003013300    0.0006178100
  -0.0005508700   -0.0003121400    0.0006307900
  -0.0005493700   -0.0002961900    0.0006208500