natom:   96
displacements:
- atom:    1
  direction:
    [   1.0000000000000000,  0.0000000000000000,  0.0000000000000000 ]
  displacement:
    [   0.0099993962185870,  0.0000015232732245,  0.0001098769463797 ]
- atom:    1
  direction:
    [  -1.0000000000000000,  0.0000000000000000,  0.0000000000000000 ]
  displacement:
    [  -0.0099993962185870, -0.0000015232732245, -0.0001098769463797 ]
- atom:    1
  direction:
    [   0.0000000000000000,  1.0000000000000000,  0.0000000000000000 ]
  displacement:
    [   0.0000009597660703,  0.0099999999359925, -0.0000005991661252 ]
- atom:    1
  direction:
    [   0.0000000000000000, -1.0000000000000000,  0.0000000000000000 ]
  displacement:
    [  -0.0000009597660703, -0.0099999999359925,  0.0000005991661252 ]
- atom:    1
  direction:
    [   0.0000000000000000,  0.0000000000000000,  1.0000000000000000 ]
  displacement:
    [   0.0001093573140055,  0.0000000698491566,  0.0099994020307714 ]
- atom:    1
  direction:
    [   0.0000000000000000,  0.0000000000000000, -1.0000000000000000 ]
  displacement:
    [  -0.0001093573140055, -0.0000000698491566, -0.0099994020307714 ]
- atom:    9
  direction:
    [   1.0000000000000000,  0.0000000000000000,  0.0000000000000000 ]
  displacement:
    [   0.0099993962185870,  0.0000015232732245,  0.0001098769463797 ]
- atom:    9
  direction:
    [  -1.0000000000000000,  0.0000000000000000,  0.0000000000000000 ]
  displacement:
    [  -0.0099993962185870, -0.0000015232732245, -0.0001098769463797 ]
- atom:    9
  direction:
    [   0.0000000000000000,  1.0000000000000000,  0.0000000000000000 ]
  displacement:
    [   0.0000009597660703,  0.0099999999359925, -0.0000005991661252 ]
- atom:    9
  direction:
    [   0.0000000000000000, -1.0000000000000000,  0.0000000000000000 ]
  displacement:
    [  -0.0000009597660703, -0.0099999999359925,  0.0000005991661252 ]
- atom:    9
  direction:
    [   0.0000000000000000,  0.0000000000000000,  1.0000000000000000 ]
  displacement:
    [   0.0001093573140055,  0.0000000698491566,  0.0099994020307714 ]
- atom:    9
  direction:
    [   0.0000000000000000,  0.0000000000000000, -1.0000000000000000 ]
  displacement:
    [  -0.0001093573140055, -0.0000000698491566, -0.0099994020307714 ]
- atom:   17
  direction:
    [   1.0000000000000000,  0.0000000000000000,  0.0000000000000000 ]
  displacement:
    [   0.0099993962185870,  0.0000015232732245,  0.0001098769463797 ]
- atom:   17
  direction:
    [  -1.0000000000000000,  0.0000000000000000,  0.0000000000000000 ]
  displacement:
    [  -0.0099993962185870, -0.0000015232732245, -0.0001098769463797 ]
- atom:   17
  direction:
    [   0.0000000000000000,  1.0000000000000000,  0.0000000000000000 ]
  displacement:
    [   0.0000009597660703,  0.0099999999359925, -0.0000005991661252 ]
- atom:   17
  direction:
    [   0.0000000000000000, -1.0000000000000000,  0.0000000000000000 ]
  displacement:
    [  -0.0000009597660703, -0.0099999999359925,  0.0000005991661252 ]
- atom:   17
  direction:
    [   0.0000000000000000,  0.0000000000000000,  1.0000000000000000 ]
  displacement:
    [   0.0001093573140055,  0.0000000698491566,  0.0099994020307714 ]
- atom:   17
  direction:
    [   0.0000000000000000,  0.0000000000000000, -1.0000000000000000 ]
  displacement:
    [  -0.0001093573140055, -0.0000000698491566, -0.0099994020307714 ]
- atom:   25
  direction:
    [   1.0000000000000000,  0.0000000000000000,  0.0000000000000000 ]
  displacement:
    [   0.0099993962185870,  0.0000015232732245,  0.0001098769463797 ]
- atom:   25
  direction:
    [  -1.0000000000000000,  0.0000000000000000,  0.0000000000000000 ]
  displacement:
    [  -0.0099993962185870, -0.0000015232732245, -0.0001098769463797 ]
- atom:   25
  direction:
    [   0.0000000000000000,  1.0000000000000000,  0.0000000000000000 ]
  displacement:
    [   0.0000009597660703,  0.0099999999359925, -0.0000005991661252 ]
- atom:   25
  direction:
    [   0.0000000000000000, -1.0000000000000000,  0.0000000000000000 ]
  displacement:
    [  -0.0000009597660703, -0.0099999999359925,  0.0000005991661252 ]
- atom:   25
  direction:
    [   0.0000000000000000,  0.0000000000000000,  1.0000000000000000 ]
  displacement:
    [   0.0001093573140055,  0.0000000698491566,  0.0099994020307714 ]
- atom:   25
  direction:
    [   0.0000000000000000,  0.0000000000000000, -1.0000000000000000 ]
  displacement:
    [  -0.0001093573140055, -0.0000000698491566, -0.0099994020307714 ]
- atom:   33
  direction:
    [   1.0000000000000000,  0.0000000000000000,  0.0000000000000000 ]
  displacement:
    [   0.0099993962185870,  0.0000015232732245,  0.0001098769463797 ]
- atom:   33
  direction:
    [  -1.0000000000000000,  0.0000000000000000,  0.0000000000000000 ]
  displacement:
    [  -0.0099993962185870, -0.0000015232732245, -0.0001098769463797 ]
- atom:   33
  direction:
    [   0.0000000000000000,  1.0000000000000000,  0.0000000000000000 ]
  displacement:
    [   0.0000009597660703,  0.0099999999359925, -0.0000005991661252 ]
- atom:   33
  direction:
    [   0.0000000000000000, -1.0000000000000000,  0.0000000000000000 ]
  displacement:
    [  -0.0000009597660703, -0.0099999999359925,  0.0000005991661252 ]
- atom:   33
  direction:
    [   0.0000000000000000,  0.0000000000000000,  1.0000000000000000 ]
  displacement:
    [   0.0001093573140055,  0.0000000698491566,  0.0099994020307714 ]
- atom:   33
  direction:
    [   0.0000000000000000,  0.0000000000000000, -1.0000000000000000 ]
  displacement:
    [  -0.0001093573140055, -0.0000000698491566, -0.0099994020307714 ]
- atom:   41
  direction:
    [   1.0000000000000000,  0.0000000000000000,  0.0000000000000000 ]
  displacement:
    [   0.0099993962185870,  0.0000015232732245,  0.0001098769463797 ]
- atom:   41
  direction:
    [  -1.0000000000000000,  0.0000000000000000,  0.0000000000000000 ]
  displacement:
    [  -0.0099993962185870, -0.0000015232732245, -0.0001098769463797 ]
- atom:   41
  direction:
    [   0.0000000000000000,  1.0000000000000000,  0.0000000000000000 ]
  displacement:
    [   0.0000009597660703,  0.0099999999359925, -0.0000005991661252 ]
- atom:   41
  direction:
    [   0.0000000000000000, -1.0000000000000000,  0.0000000000000000 ]
  displacement:
    [  -0.0000009597660703, -0.0099999999359925,  0.0000005991661252 ]
- atom:   41
  direction:
    [   0.0000000000000000,  0.0000000000000000,  1.0000000000000000 ]
  displacement:
    [   0.0001093573140055,  0.0000000698491566,  0.0099994020307714 ]
- atom:   41
  direction:
    [   0.0000000000000000,  0.0000000000000000, -1.0000000000000000 ]
  displacement:
    [  -0.0001093573140055, -0.0000000698491566, -0.0099994020307714 ]
- atom:   49
  direction:
    [   1.0000000000000000,  0.0000000000000000,  0.0000000000000000 ]
  displacement:
    [   0.0099993962185870,  0.0000015232732245,  0.0001098769463797 ]
- atom:   49
  direction:
    [  -1.0000000000000000,  0.0000000000000000,  0.0000000000000000 ]
  displacement:
    [  -0.0099993962185870, -0.0000015232732245, -0.0001098769463797 ]
- atom:   49
  direction:
    [   0.0000000000000000,  1.0000000000000000,  0.0000000000000000 ]
  displacement:
    [   0.0000009597660703,  0.0099999999359925, -0.0000005991661252 ]
- atom:   49
  direction:
    [   0.0000000000000000, -1.0000000000000000,  0.0000000000000000 ]
  displacement:
    [  -0.0000009597660703, -0.0099999999359925,  0.0000005991661252 ]
- atom:   49
  direction:
    [   0.0000000000000000,  0.0000000000000000,  1.0000000000000000 ]
  displacement:
    [   0.0001093573140055,  0.0000000698491566,  0.0099994020307714 ]
- atom:   49
  direction:
    [   0.0000000000000000,  0.0000000000000000, -1.0000000000000000 ]
  displacement:
    [  -0.0001093573140055, -0.0000000698491566, -0.0099994020307714 ]
- atom:   57
  direction:
    [   1.0000000000000000,  0.0000000000000000,  0.0000000000000000 ]
  displacement:
    [   0.0099993962185870,  0.0000015232732245,  0.0001098769463797 ]
- atom:   57
  direction:
    [  -1.0000000000000000,  0.0000000000000000,  0.0000000000000000 ]
  displacement:
    [  -0.0099993962185870, -0.0000015232732245, -0.0001098769463797 ]
- atom:   57
  direction:
    [   0.0000000000000000,  1.0000000000000000,  0.0000000000000000 ]
  displacement:
    [   0.0000009597660703,  0.0099999999359925, -0.0000005991661252 ]
- atom:   57
  direction:
    [   0.0000000000000000, -1.0000000000000000,  0.0000000000000000 ]
  displacement:
    [  -0.0000009597660703, -0.0099999999359925,  0.0000005991661252 ]
- atom:   57
  direction:
    [   0.0000000000000000,  0.0000000000000000,  1.0000000000000000 ]
  displacement:
    [   0.0001093573140055,  0.0000000698491566,  0.0099994020307714 ]
- atom:   57
  direction:
    [   0.0000000000000000,  0.0000000000000000, -1.0000000000000000 ]
  displacement:
    [  -0.0001093573140055, -0.0000000698491566, -0.0099994020307714 ]
- atom:   65
  direction:
    [   1.0000000000000000,  0.0000000000000000,  0.0000000000000000 ]
  displacement:
    [   0.0099993962185870,  0.0000015232732245,  0.0001098769463797 ]
- atom:   65
  direction:
    [  -1.0000000000000000,  0.0000000000000000,  0.0000000000000000 ]
  displacement:
    [  -0.0099993962185870, -0.0000015232732245, -0.0001098769463797 ]
- atom:   65
  direction:
    [   0.0000000000000000,  1.0000000000000000,  0.0000000000000000 ]
  displacement:
    [   0.0000009597660703,  0.0099999999359925, -0.0000005991661252 ]
- atom:   65
  direction:
    [   0.0000000000000000, -1.0000000000000000,  0.0000000000000000 ]
  displacement:
    [  -0.0000009597660703, -0.0099999999359925,  0.0000005991661252 ]
- atom:   65
  direction:
    [   0.0000000000000000,  0.0000000000000000,  1.0000000000000000 ]
  displacement:
    [   0.0001093573140055,  0.0000000698491566,  0.0099994020307714 ]
- atom:   65
  direction:
    [   0.0000000000000000,  0.0000000000000000, -1.0000000000000000 ]
  displacement:
    [  -0.0001093573140055, -0.0000000698491566, -0.0099994020307714 ]
- atom:   73
  direction:
    [   1.0000000000000000,  0.0000000000000000,  0.0000000000000000 ]
  displacement:
    [   0.0099993962185870,  0.0000015232732245,  0.0001098769463797 ]
- atom:   73
  direction:
    [  -1.0000000000000000,  0.0000000000000000,  0.0000000000000000 ]
  displacement:
    [  -0.0099993962185870, -0.0000015232732245, -0.0001098769463797 ]
- atom:   73
  direction:
    [   0.0000000000000000,  1.0000000000000000,  0.0000000000000000 ]
  displacement:
    [   0.0000009597660703,  0.0099999999359925, -0.0000005991661252 ]
- atom:   73
  direction:
    [   0.0000000000000000, -1.0000000000000000,  0.0000000000000000 ]
  displacement:
    [  -0.0000009597660703, -0.0099999999359925,  0.0000005991661252 ]
- atom:   73
  direction:
    [   0.0000000000000000,  0.0000000000000000,  1.0000000000000000 ]
  displacement:
    [   0.0001093573140055,  0.0000000698491566,  0.0099994020307714 ]
- atom:   73
  direction:
    [   0.0000000000000000,  0.0000000000000000, -1.0000000000000000 ]
  displacement:
    [  -0.0001093573140055, -0.0000000698491566, -0.0099994020307714 ]
- atom:   81
  direction:
    [   1.0000000000000000,  0.0000000000000000,  0.0000000000000000 ]
  displacement:
    [   0.0099993962185870,  0.0000015232732245,  0.0001098769463797 ]
- atom:   81
  direction:
    [  -1.0000000000000000,  0.0000000000000000,  0.0000000000000000 ]
  displacement:
    [  -0.0099993962185870, -0.0000015232732245, -0.0001098769463797 ]
- atom:   81
  direction:
    [   0.0000000000000000,  1.0000000000000000,  0.0000000000000000 ]
  displacement:
    [   0.0000009597660703,  0.0099999999359925, -0.0000005991661252 ]
- atom:   81
  direction:
    [   0.0000000000000000, -1.0000000000000000,  0.0000000000000000 ]
  displacement:
    [  -0.0000009597660703, -0.0099999999359925,  0.0000005991661252 ]
- atom:   81
  direction:
    [   0.0000000000000000,  0.0000000000000000,  1.0000000000000000 ]
  displacement:
    [   0.0001093573140055,  0.0000000698491566,  0.0099994020307714 ]
- atom:   81
  direction:
    [   0.0000000000000000,  0.0000000000000000, -1.0000000000000000 ]
  displacement:
    [  -0.0001093573140055, -0.0000000698491566, -0.0099994020307714 ]
- atom:   89
  direction:
    [   1.0000000000000000,  0.0000000000000000,  0.0000000000000000 ]
  displacement:
    [   0.0099993962185870,  0.0000015232732245,  0.0001098769463797 ]
- atom:   89
  direction:
    [  -1.0000000000000000,  0.0000000000000000,  0.0000000000000000 ]
  displacement:
    [  -0.0099993962185870, -0.0000015232732245, -0.0001098769463797 ]
- atom:   89
  direction:
    [   0.0000000000000000,  1.0000000000000000,  0.0000000000000000 ]
  displacement:
    [   0.0000009597660703,  0.0099999999359925, -0.0000005991661252 ]
- atom:   89
  direction:
    [   0.0000000000000000, -1.0000000000000000,  0.0000000000000000 ]
  displacement:
    [  -0.0000009597660703, -0.0099999999359925,  0.0000005991661252 ]
- atom:   89
  direction:
    [   0.0000000000000000,  0.0000000000000000,  1.0000000000000000 ]
  displacement:
    [   0.0001093573140055,  0.0000000698491566,  0.0099994020307714 ]
- atom:   89
  direction:
    [   0.0000000000000000,  0.0000000000000000, -1.0000000000000000 ]
  displacement:
    [  -0.0001093573140055, -0.0000000698491566, -0.0099994020307714 ]
lattice:
- [   12.576837427768639,   0.001915911649498,   0.138198793353966 ]
- [    0.001195632244747,  12.457538082524913,  -0.000746413487024 ]
- [    0.139410704339212,   0.000089044982541,  12.747420625292056 ]
atoms:
- symbol: C  # 1
  position: [   0.19699413241265,  0.24990827511430,  0.22891535434055 ]
- symbol: C  # 2
  position: [   0.69699413241265,  0.24990827511430,  0.22891535434055 ]
- symbol: C  # 3
  position: [   0.19699413241265,  0.74990827511430,  0.22891535434055 ]
- symbol: C  # 4
  position: [   0.69699413241265,  0.74990827511430,  0.22891535434055 ]
- symbol: C  # 5
  position: [   0.19699413241265,  0.24990827511430,  0.72891535434055 ]
- symbol: C  # 6
  position: [   0.69699413241265,  0.24990827511430,  0.72891535434055 ]
- symbol: C  # 7
  position: [   0.19699413241265,  0.74990827511430,  0.72891535434055 ]
- symbol: C  # 8
  position: [   0.69699413241265,  0.74990827511430,  0.72891535434055 ]
- symbol: N  # 9
  position: [   0.30453721891672,  0.25000364061658,  0.27388429647430 ]
- symbol: N  # 10
  position: [   0.80453721891672,  0.25000364061658,  0.27388429647430 ]
- symbol: N  # 11
  position: [   0.30453721891672,  0.75000364061658,  0.27388429647430 ]
- symbol: N  # 12
  position: [   0.80453721891672,  0.75000364061658,  0.27388429647430 ]
- symbol: N  # 13
  position: [   0.30453721891672,  0.25000364061658,  0.77388429647430 ]
- symbol: N  # 14
  position: [   0.80453721891672,  0.25000364061658,  0.77388429647430 ]
- symbol: N  # 15
  position: [   0.30453721891672,  0.75000364061658,  0.77388429647430 ]
- symbol: N  # 16
  position: [   0.80453721891672,  0.75000364061658,  0.77388429647430 ]
- symbol: H  # 17
  position: [   0.20507516723675,  0.24982109632403,  0.14288862594671 ]
- symbol: H  # 18
  position: [   0.70507516723675,  0.24982109632403,  0.14288862594671 ]
- symbol: H  # 19
  position: [   0.20507516723675,  0.74982109632403,  0.14288862594671 ]
- symbol: H  # 20
  position: [   0.70507516723675,  0.74982109632403,  0.14288862594671 ]
- symbol: H  # 21
  position: [   0.20507516723675,  0.24982109632403,  0.64288862594671 ]
- symbol: H  # 22
  position: [   0.70507516723675,  0.24982109632403,  0.64288862594671 ]
- symbol: H  # 23
  position: [   0.20507516723675,  0.74982109632403,  0.64288862594671 ]
- symbol: H  # 24
  position: [   0.70507516723675,  0.74982109632403,  0.64288862594671 ]
- symbol: H  # 25
  position: [   0.15433780667842,  0.32235218669038,  0.25551531924632 ]
- symbol: H  # 26
  position: [   0.65433780667842,  0.32235218669038,  0.25551531924632 ]
- symbol: H  # 27
  position: [   0.15433780667842,  0.82235218669038,  0.25551531924632 ]
- symbol: H  # 28
  position: [   0.65433780667842,  0.82235218669038,  0.25551531924632 ]
- symbol: H  # 29
  position: [   0.15433780667842,  0.32235218669038,  0.75551531924632 ]
- symbol: H  # 30
  position: [   0.65433780667842,  0.32235218669038,  0.75551531924632 ]
- symbol: H  # 31
  position: [   0.15433780667842,  0.82235218669038,  0.75551531924632 ]
- symbol: H  # 32
  position: [   0.65433780667842,  0.82235218669038,  0.75551531924632 ]
- symbol: H  # 33
  position: [   0.15444283363923,  0.17747607347516,  0.25565070671031 ]
- symbol: H  # 34
  position: [   0.65444283363923,  0.17747607347516,  0.25565070671031 ]
- symbol: H  # 35
  position: [   0.15444283363923,  0.67747607347516,  0.25565070671031 ]
- symbol: H  # 36
  position: [   0.65444283363923,  0.67747607347516,  0.25565070671031 ]
- symbol: H  # 37
  position: [   0.15444283363923,  0.17747607347516,  0.75565070671031 ]
- symbol: H  # 38
  position: [   0.65444283363923,  0.17747607347516,  0.75565070671031 ]
- symbol: H  # 39
  position: [   0.15444283363923,  0.67747607347516,  0.75565070671031 ]
- symbol: H  # 40
  position: [   0.65444283363923,  0.67747607347516,  0.75565070671031 ]
- symbol: H  # 41
  position: [   0.34813457737670,  0.31787428290722,  0.25075649098324 ]
- symbol: H  # 42
  position: [   0.84813457737670,  0.31787428290722,  0.25075649098324 ]
- symbol: H  # 43
  position: [   0.34813457737670,  0.81787428290722,  0.25075649098324 ]
- symbol: H  # 44
  position: [   0.84813457737670,  0.81787428290722,  0.25075649098324 ]
- symbol: H  # 45
  position: [   0.34813457737670,  0.31787428290722,  0.75075649098324 ]
- symbol: H  # 46
  position: [   0.84813457737670,  0.31787428290722,  0.75075649098324 ]
- symbol: H  # 47
  position: [   0.34813457737670,  0.81787428290722,  0.75075649098324 ]
- symbol: H  # 48
  position: [   0.84813457737670,  0.81787428290722,  0.75075649098324 ]
- symbol: H  # 49
  position: [   0.34820530025354,  0.18210488747133,  0.25089089982756 ]
- symbol: H  # 50
  position: [   0.84820530025354,  0.18210488747133,  0.25089089982756 ]
- symbol: H  # 51
  position: [   0.34820530025354,  0.68210488747133,  0.25089089982756 ]
- symbol: H  # 52
  position: [   0.84820530025354,  0.68210488747133,  0.25089089982756 ]
- symbol: H  # 53
  position: [   0.34820530025354,  0.18210488747133,  0.75089089982756 ]
- symbol: H  # 54
  position: [   0.84820530025354,  0.18210488747133,  0.75089089982756 ]
- symbol: H  # 55
  position: [   0.34820530025354,  0.68210488747133,  0.75089089982756 ]
- symbol: H  # 56
  position: [   0.84820530025354,  0.68210488747133,  0.75089089982756 ]
- symbol: H  # 57
  position: [   0.30317007297301,  0.25009352171947,  0.35560924466983 ]
- symbol: H  # 58
  position: [   0.80317007297301,  0.25009352171947,  0.35560924466983 ]
- symbol: H  # 59
  position: [   0.30317007297301,  0.75009352171947,  0.35560924466983 ]
- symbol: H  # 60
  position: [   0.80317007297301,  0.75009352171947,  0.35560924466983 ]
- symbol: H  # 61
  position: [   0.30317007297301,  0.25009352171947,  0.85560924466983 ]
- symbol: H  # 62
  position: [   0.80317007297301,  0.25009352171947,  0.85560924466983 ]
- symbol: H  # 63
  position: [   0.30317007297301,  0.75009352171947,  0.85560924466983 ]
- symbol: H  # 64
  position: [   0.80317007297301,  0.75009352171947,  0.85560924466983 ]
- symbol: Pb # 65
  position: [   0.47244177597886,  0.49998979486493,  0.48881144701480 ]
- symbol: Pb # 66
  position: [   0.97244177597886,  0.49998979486493,  0.48881144701480 ]
- symbol: Pb # 67
  position: [   0.47244177597886,  0.99998979486493,  0.48881144701480 ]
- symbol: Pb # 68
  position: [   0.97244177597886,  0.99998979486493,  0.48881144701480 ]
- symbol: Pb # 69
  position: [   0.47244177597886,  0.49998979486493,  0.98881144701480 ]
- symbol: Pb # 70
  position: [   0.97244177597886,  0.49998979486493,  0.98881144701480 ]
- symbol: Pb # 71
  position: [   0.47244177597886,  0.99998979486493,  0.98881144701480 ]
- symbol: Pb # 72
  position: [   0.97244177597886,  0.99998979486493,  0.98881144701480 ]
- symbol: I  # 73
  position: [   0.45474367432990,  0.49999104951231,  0.23757274195849 ]
- symbol: I  # 74
  position: [   0.95474367432990,  0.49999104951231,  0.23757274195849 ]
- symbol: I  # 75
  position: [   0.45474367432990,  0.99999104951231,  0.23757274195849 ]
- symbol: I  # 76
  position: [   0.95474367432990,  0.99999104951231,  0.23757274195849 ]
- symbol: I  # 77
  position: [   0.45474367432990,  0.49999104951231,  0.73757274195849 ]
- symbol: I  # 78
  position: [   0.95474367432990,  0.49999104951231,  0.73757274195849 ]
- symbol: I  # 79
  position: [   0.45474367432990,  0.99999104951231,  0.73757274195849 ]
- symbol: I  # 80
  position: [   0.95474367432990,  0.99999104951231,  0.73757274195849 ]
- symbol: I  # 81
  position: [   0.44963543956390,  0.24997901054554,  0.01183221773421 ]
- symbol: I  # 82
  position: [   0.94963543956390,  0.24997901054554,  0.01183221773421 ]
- symbol: I  # 83
  position: [   0.44963543956390,  0.74997901054554,  0.01183221773421 ]
- symbol: I  # 84
  position: [   0.94963543956390,  0.74997901054554,  0.01183221773421 ]
- symbol: I  # 85
  position: [   0.44963543956390,  0.24997901054554,  0.51183221773421 ]
- symbol: I  # 86
  position: [   0.94963543956390,  0.24997901054554,  0.51183221773421 ]
- symbol: I  # 87
  position: [   0.44963543956390,  0.74997901054554,  0.51183221773421 ]
- symbol: I  # 88
  position: [   0.94963543956390,  0.74997901054554,  0.51183221773421 ]
- symbol: I  # 89
  position: [   0.21617143844029,  0.49999743635877,  0.46123970184361 ]
- symbol: I  # 90
  position: [   0.71617143844029,  0.49999743635877,  0.46123970184361 ]
- symbol: I  # 91
  position: [   0.21617143844029,  0.99999743635877,  0.46123970184361 ]
- symbol: I  # 92
  position: [   0.71617143844029,  0.99999743635877,  0.46123970184361 ]
- symbol: I  # 93
  position: [   0.21617143844029,  0.49999743635877,  0.96123970184361 ]
- symbol: I  # 94
  position: [   0.71617143844029,  0.49999743635877,  0.96123970184361 ]
- symbol: I  # 95
  position: [   0.21617143844029,  0.99999743635877,  0.96123970184361 ]
- symbol: I  # 96
  position: [   0.71617143844029,  0.99999743635877,  0.96123970184361 ]
