96   
72   

1    
  0.0099993962185870   0.0000015232732245   0.0001098769463797
  -0.4515049200    0.0000135300    0.0401757100
  -0.0004229200   -0.0000302900    0.0016590200
  -0.0006641600   -0.0000304000    0.0015982300
  -0.0004617700   -0.0000302800    0.0016279000
  -0.0005709900   -0.0000303300    0.0016136100
  -0.0004902200   -0.0000303200    0.0016568400
  -0.0005702700   -0.0000304200    0.0016086200
  -0.0005054200   -0.0000303200    0.0016323100
   0.1772240500    0.0000115800    0.0387536900
   0.0021436600   -0.0000935900   -0.0002402500
   0.0023804900   -0.0000937600   -0.0002399900
   0.0020878300   -0.0000930800   -0.0001925200
   0.0023060200   -0.0000936800   -0.0002509700
   0.0021525600   -0.0000935300   -0.0002748900
   0.0023017800   -0.0000937100   -0.0002315600
   0.0021953800   -0.0000935900   -0.0002468000
   0.0445201100   -0.0000230300   -0.0173597700
  -0.0006767100   -0.0000110100    0.0006087000
  -0.0006666700   -0.0000110900    0.0006225500
  -0.0006612700   -0.0000110300    0.0006079800
  -0.0007018400   -0.0000111600    0.0006215600
  -0.0006088800   -0.0000110900    0.0006051400
  -0.0006625000   -0.0000109200    0.0006165200
  -0.0006588900   -0.0000110400    0.0006128600
   0.0964785900   -0.0996448100   -0.0375978200
   0.0003200100    0.0001133600    0.0016712100
   0.0003169100    0.0001203700    0.0016658000
   0.0003230600    0.0000765100    0.0016928700
   0.0002989100    0.0000892200    0.0016849200
   0.0002990900    0.0000988300    0.0017005200
   0.0003030500    0.0000938300    0.0016946400
   0.0002972300    0.0000884900    0.0016852300
   0.0961598500    0.0997038800   -0.0378061500
   0.0002218900    0.0001186500    0.0015992200
   0.0002187100    0.0001116900    0.0015935500
   0.0002249200    0.0001554400    0.0016208200
   0.0002008400    0.0001427800    0.0016127900
   0.0002010000    0.0001332400    0.0016283500
   0.0002049700    0.0001382100    0.0016226700
   0.0001991600    0.0001435400    0.0016131500
   0.0201829100    0.0020389500    0.0072846100
   0.0010662900    0.0002375300    0.0000684300
   0.0008244200    0.0000935800    0.0000991900
   0.0010268200    0.0003593300    0.0000526500
   0.0009043800    0.0002493100    0.0001452100
   0.0009837300    0.0002275900    0.0000682800
   0.0009080700    0.0001870100    0.0001013900
   0.0009775500    0.0002400100    0.0000828300
   0.0201902100   -0.0018696700    0.0070580200
   0.0010429800   -0.0000965500   -0.0001718300
   0.0008011500    0.0000476900   -0.0001409300
   0.0010038900   -0.0002192200   -0.0001876800
   0.0008811800   -0.0001084000   -0.0000951900
   0.0009604800   -0.0000868100   -0.0001718300
   0.0008848200   -0.0000459800   -0.0001388500
   0.0009542900   -0.0000991200   -0.0001573600
   0.0016591400   -0.0000431100    0.0057072500
   0.0014548700   -0.0000477700    0.0002566600
   0.0013654700   -0.0000475600    0.0002622600
   0.0014140200   -0.0000477500    0.0002483100
   0.0013420600   -0.0000476500    0.0003022200
   0.0014284300   -0.0000477800    0.0003045900
   0.0013377300   -0.0000475800    0.0002537700
   0.0014156800   -0.0000477300    0.0002860900
  -0.0009893700    0.0003134900    0.0028305000
  -0.0008927500   -0.0004265900    0.0022872700
  -0.0009907200   -0.0007251200    0.0028305900
  -0.0008907300    0.0000149000    0.0022878700
  -0.0010792500   -0.0002199400    0.0022400300
  -0.0007976200   -0.0003153100    0.0027474000
  -0.0010796600   -0.0001916600    0.0022400000
  -0.0007978700   -0.0000964900    0.0027464700
  -0.0014115200   -0.0011902100   -0.0040816300
  -0.0005114300   -0.0004147200   -0.0040617500
  -0.0014144500    0.0008660600   -0.0040812200
  -0.0005109800    0.0000865700   -0.0040617500
  -0.0006969600   -0.0002174400   -0.0042093500
  -0.0007568500   -0.0001526600   -0.0041438000
  -0.0006969300   -0.0001108100   -0.0042093100
  -0.0007569200   -0.0001755800   -0.0041437100
  -0.0013773800    0.0003306700   -0.0049421600
  -0.0015588700    0.0003294800   -0.0050596500
  -0.0017504500    0.0003297000   -0.0050445700
  -0.0018240300    0.0003296300   -0.0051297500
  -0.0026225400    0.0003304900   -0.0060285700
  -0.0018285200    0.0003296100   -0.0050691700
  -0.0017552000    0.0003294300   -0.0051594200
  -0.0017979000    0.0003294100   -0.0051025300
  -0.0009179700   -0.0003802200    0.0012301800
  -0.0014737200   -0.0001649400    0.0012239400
  -0.0009187400    0.0000781900    0.0012326400
  -0.0014737100   -0.0001349800    0.0012239300
  -0.0011851300   -0.0000496700    0.0010860600
  -0.0014098000   -0.0001376700    0.0012256000
  -0.0011855600   -0.0002503600    0.0010858000
  -0.0014097100   -0.0001622600    0.0012256600

1    
 -0.0099993962185870  -0.0000015232732245  -0.0001098769463797
   0.4378483300   -0.0001087200   -0.0471916800
  -0.0006494900   -0.0000303700    0.0015833900
  -0.0004061600   -0.0000303000    0.0016454700
  -0.0006091500   -0.0000304100    0.0016146000
  -0.0004988800   -0.0000304000    0.0016290500
  -0.0005820200   -0.0000303700    0.0015869500
  -0.0004995600   -0.0000303000    0.0016344900
  -0.0005654100   -0.0000303600    0.0016106400
  -0.1617268300   -0.0001868900   -0.0344038300
   0.0023205500   -0.0000935700   -0.0002242800
   0.0020812900   -0.0000935000   -0.0002237400
   0.0023768300   -0.0000941200   -0.0002714400
   0.0021565200   -0.0000936400   -0.0002127800
   0.0023137100   -0.0000936800   -0.0001854900
   0.0021612800   -0.0000934400   -0.0002321900
   0.0022686400   -0.0000936000   -0.0002167800
  -0.0459873100    0.0000036300    0.0206670600
  -0.0006516200   -0.0000110400    0.0006208000
  -0.0006608500   -0.0000109800    0.0006069200
  -0.0006664800   -0.0000110300    0.0006212000
  -0.0006259200   -0.0000109000    0.0006073400
  -0.0007181700   -0.0000109600    0.0006241900
  -0.0006650900   -0.0000111500    0.0006128500
  -0.0006688500   -0.0000110200    0.0006164100
  -0.0956776000    0.1028434700    0.0423630200
   0.0002646900    0.0000591900    0.0016938200
   0.0002692100    0.0000533200    0.0016992100
   0.0002620300    0.0000971500    0.0016723600
   0.0002868100    0.0000844900    0.0016800300
   0.0002862700    0.0000746100    0.0016645700
   0.0002826800    0.0000795400    0.0016703800
   0.0002880400    0.0000849000    0.0016797700
  -0.0955449000   -0.1024200900    0.0424274500
   0.0001666400    0.0001728600    0.0016216400
   0.0001712600    0.0001787000    0.0016272800
   0.0001640200    0.0001349800    0.0016002300
   0.0001887300    0.0001475800    0.0016079700
   0.0001881800    0.0001573600    0.0015925800
   0.0001846100    0.0001524900    0.0015981600
   0.0001899600    0.0001471400    0.0016076800
  -0.0176523200   -0.0014198600   -0.0069068700
   0.0008522300    0.0002080600    0.0000999300
   0.0010972000    0.0003526400    0.0000674100
   0.0008930000    0.0000838400    0.0001142800
   0.0010166000    0.0001951000    0.0000212000
   0.0009373700    0.0002183400    0.0000975600
   0.0010126400    0.0002572900    0.0000654300
   0.0009430200    0.0002042700    0.0000839900
  -0.0177052800    0.0015331000   -0.0071601600
   0.0008290400   -0.0000672400   -0.0001402200
   0.0010739700   -0.0002121400   -0.0001728700
   0.0008694700    0.0000577900   -0.0001257900
   0.0009933000   -0.0000542200   -0.0002188000
   0.0009141100   -0.0000773300   -0.0001427400
   0.0009894100   -0.0001165600   -0.0001747400
   0.0009197800   -0.0000633900   -0.0001562300
   0.0011587700   -0.0000521700   -0.0050257900
   0.0013290900   -0.0000476600    0.0002731600
   0.0014183000   -0.0000478800    0.0002665700
   0.0013699300   -0.0000476800    0.0002814300
   0.0014426600   -0.0000478000    0.0002278100
   0.0013507000   -0.0000476400    0.0002194100
   0.0014466000   -0.0000478600    0.0002746000
   0.0013680200   -0.0000477000    0.0002423700
  -0.0009986800   -0.0007280300    0.0022252700
  -0.0010868200    0.0000143900    0.0027722100
  -0.0009973200    0.0003167100    0.0022252400
  -0.0010886800   -0.0004252500    0.0027714800
  -0.0009074000   -0.0001936700    0.0028219700
  -0.0011842300   -0.0000856300    0.0023086500
  -0.0009069300   -0.0002177200    0.0028221800
  -0.0011838400   -0.0003255700    0.0023097400
  -0.0000674900    0.0008496500   -0.0041753100
  -0.0009507900    0.0000795000   -0.0041958100
  -0.0000647100   -0.0011819300   -0.0041757200
  -0.0009511300   -0.0004077800   -0.0041958400
  -0.0007696300   -0.0001105900   -0.0040453500
  -0.0007104400   -0.0001764900   -0.0041099200
  -0.0007697400   -0.0002176700   -0.0040453800
  -0.0007102400   -0.0001517600   -0.0041100400
  -0.0022086800    0.0003285300   -0.0052801300
  -0.0020113700    0.0003296600   -0.0051462900
  -0.0018345200    0.0003295000   -0.0051817300
  -0.0017611900    0.0003295700   -0.0050956000
  -0.0009736800    0.0003286700   -0.0042078500
  -0.0017554800    0.0003295800   -0.0051598600
  -0.0018297700    0.0003298000   -0.0050658300
  -0.0017875200    0.0003297500   -0.0051232100
  -0.0016648600    0.0000732500    0.0012096700
  -0.0011050400   -0.0001347500    0.0012212300
  -0.0016641500   -0.0003709500    0.0012072500
  -0.0011050800   -0.0001651200    0.0012213200
  -0.0013994500   -0.0002527000    0.0013608700
  -0.0011677700   -0.0001629800    0.0012197400
  -0.0013990600   -0.0000470200    0.0013611400
  -0.0011678800   -0.0001368400    0.0012197200

1    
  0.0000009597660703   0.0099999999359925  -0.0000005991661252
   0.0076611300   -0.5578249900   -0.0044578300
  -0.0005327100    0.0000105300    0.0016230800
  -0.0005346500    0.0000262800    0.0016221900
  -0.0005330000   -0.0000717100    0.0016227000
  -0.0005340100   -0.0000211700    0.0016222200
  -0.0005331700   -0.0000293200    0.0016224600
  -0.0005336400   -0.0000406600    0.0016227400
  -0.0005333800   -0.0000315300    0.0016227300
   0.0018054900    0.0858058600    0.0000164200
   0.0022337600   -0.0000736200   -0.0002308600
   0.0022352500    0.0000083000   -0.0002303100
   0.0022328000   -0.0002853800   -0.0002296100
   0.0022347100   -0.0001075300   -0.0002297500
   0.0022334400   -0.0000924800   -0.0002306800
   0.0022342900   -0.0000730000   -0.0002302000
   0.0022336600   -0.0000944600   -0.0002303600
  -0.0010477100    0.0425085400    0.0020717400
  -0.0006636400   -0.0000148600    0.0006137900
  -0.0006638200   -0.0000277500    0.0006138400
  -0.0006637400   -0.0000070300    0.0006136500
  -0.0006639300   -0.0000284500    0.0006137400
  -0.0006636100   -0.0000115000    0.0006138100
  -0.0006637400    0.0000091300    0.0006140500
  -0.0006637200   -0.0000103000    0.0006139500
  -0.0951088700    0.2226618300    0.0736661300
   0.0002665100    0.0000880400    0.0016768400
   0.0002765000    0.0000974700    0.0016829100
   0.0003264800    0.0000850400    0.0016936600
   0.0002954900    0.0000889400    0.0016941000
   0.0002922000    0.0000877700    0.0016828500
   0.0002855200    0.0000840400    0.0016650800
   0.0002930500    0.0000868100    0.0016826300
   0.0880154100    0.2140320500   -0.0659414200
   0.0002199500    0.0001457400    0.0016167700
   0.0002097500    0.0001544200    0.0016105300
   0.0001604600    0.0001423200    0.0016002500
   0.0001907900    0.0001466100    0.0015994900
   0.0001943700    0.0001451200    0.0016106800
   0.0002009900    0.0001415700    0.0016283600
   0.0001936800    0.0001441900    0.0016108000
   0.0240157700   -0.0048935300    0.0129746400
   0.0008617900    0.0001410700    0.0000892100
   0.0008361400    0.0001015300    0.0001140000
   0.0010645800    0.0003922900    0.0000510700
   0.0009606400    0.0002281400    0.0000924200
   0.0009578400    0.0002176100    0.0000828700
   0.0009596500    0.0002098600    0.0000714500
   0.0009606600    0.0002226300    0.0000835200
  -0.0219845900   -0.0052639200   -0.0131055800
   0.0010362300   -0.0001559200   -0.0001609300
   0.0010567400   -0.0001959900   -0.0001858800
   0.0008316800    0.0000900000   -0.0001236400
   0.0009336300   -0.0000705300   -0.0001644200
   0.0009369000   -0.0000801500   -0.0001554800
   0.0009344800   -0.0000889400   -0.0001430000
   0.0009342000   -0.0000768800   -0.0001554200
   0.0014630000    0.0004558300    0.0002701800
   0.0013927300   -0.0000548100    0.0002617800
   0.0013917400   -0.0000225800    0.0002620800
   0.0013920300   -0.0000426900    0.0002614500
   0.0013912700   -0.0000170000    0.0002613800
   0.0013928800   -0.0000421600    0.0002625700
   0.0013916300   -0.0000918900    0.0002609800
   0.0013920800   -0.0000505300    0.0002615100
  -0.0009135000   -0.0002393800    0.0023417300
  -0.0011945900   -0.0000842600    0.0028344400
  -0.0010684100   -0.0002369900    0.0027225600
  -0.0007934500   -0.0000742300    0.0022189400
  -0.0011167700   -0.0002015700    0.0027274800
  -0.0008613600   -0.0001900500    0.0023012400
  -0.0008672100   -0.0002016400    0.0023240900
  -0.0011243400   -0.0001847200    0.0027610200
  -0.0006502600    0.0005602000   -0.0042837600
  -0.0009804100   -0.0000701500   -0.0041135300
  -0.0008337400    0.0005869100   -0.0039702300
  -0.0004839600   -0.0000709400   -0.0041424500
  -0.0007349800   -0.0001703900   -0.0041545100
  -0.0007352300   -0.0001618100   -0.0041543300
  -0.0007316800   -0.0001707900   -0.0041011700
  -0.0007311000   -0.0001630600   -0.0041009700
  -0.0017952300    0.0001677500   -0.0051105400
  -0.0017936900    0.0003443200   -0.0051150200
  -0.0017925700    0.0004293400   -0.0051121800
  -0.0017928600    0.0003120200   -0.0051132100
  -0.0017910900    0.0002163800   -0.0051116800
  -0.0017944900    0.0004191200   -0.0051104300
  -0.0017929700    0.0003546700   -0.0051133900
  -0.0017926600    0.0002622500   -0.0051127700
  -0.0012964700    0.0000992600    0.0015825600
  -0.0012652800   -0.0001473300    0.0012254500
  -0.0012811900    0.0001090900    0.0008490000
  -0.0013191500   -0.0001482200    0.0012188700
  -0.0013374600    0.0000945200    0.0010217400
  -0.0012594800   -0.0001514600    0.0012204800
  -0.0012410200    0.0000968100    0.0014260900
  -0.0013254400   -0.0001519700    0.0012245400

1    
 -0.0000009597660703  -0.0099999999359925   0.0000005991661252
   0.0074599200    0.5577577800   -0.0046377300
  -0.0005336900   -0.0000711300    0.0016227000
  -0.0005353200   -0.0000869400    0.0016217100
  -0.0005340300    0.0000110500    0.0016218800
  -0.0005350500   -0.0000394900    0.0016217200
  -0.0005342000   -0.0000313000    0.0016218000
  -0.0005346800   -0.0000200300    0.0016220500
  -0.0005344700   -0.0000291200    0.0016220400
   0.0016020600   -0.0859926600   -0.0000486200
   0.0022257700   -0.0001135200   -0.0002353300
   0.0022266500   -0.0001955000   -0.0002346100
   0.0022241000    0.0000981300   -0.0002340000
   0.0022260400   -0.0000797300   -0.0002340300
   0.0022250500   -0.0000946900   -0.0002348700
   0.0022258400   -0.0001141000   -0.0002344900
   0.0022252400   -0.0000927200   -0.0002346000
  -0.0009910100   -0.0425251800    0.0016197300
  -0.0006638500   -0.0000071400    0.0006162000
  -0.0006641000    0.0000057300    0.0006162800
  -0.0006639500   -0.0000149900    0.0006161000
  -0.0006640500    0.0000064400    0.0006162300
  -0.0006640300   -0.0000105000    0.0006162400
  -0.0006640300   -0.0000311500    0.0006164000
  -0.0006640100   -0.0000117100    0.0006163500
   0.0883193400   -0.2138129700   -0.0655152900
   0.0003190600    0.0000842700    0.0016881300
   0.0003090500    0.0000757400    0.0016818700
   0.0002597700    0.0000878800    0.0016716200
   0.0002901200    0.0000836400    0.0016708100
   0.0002936700    0.0000850500    0.0016819700
   0.0003002400    0.0000886100    0.0016997100
   0.0002929400    0.0000859700    0.0016821500
  -0.0949876900   -0.2224199600    0.0739727700
   0.0001694700    0.0001461000    0.0016040200
   0.0001796600    0.0001365500    0.0016100600
   0.0002296200    0.0001489200    0.0016208600
   0.0001986600    0.0001449700    0.0016212300
   0.0001953300    0.0001462000    0.0016099500
   0.0001886300    0.0001499400    0.0015922300
   0.0001961700    0.0001471800    0.0016098000
  -0.0219690500    0.0053473400   -0.0128767200
   0.0010615800    0.0002988300    0.0000787100
   0.0010821000    0.0003396000    0.0000536900
   0.0008569500    0.0000533900    0.0001158100
   0.0009590200    0.0002140900    0.0000749200
   0.0009621100    0.0002236800    0.0000841500
   0.0009597800    0.0002325200    0.0000964700
   0.0009594500    0.0002203800    0.0000840800
   0.0239830500    0.0050917200    0.0127226100
   0.0008406400   -0.0000021000   -0.0001515800
   0.0008150100    0.0000367200   -0.0001268400
   0.0010433400   -0.0002538100   -0.0001898900
   0.0009395100   -0.0000898300   -0.0001486500
   0.0009365400   -0.0000792500   -0.0001579000
   0.0009384700   -0.0000715800   -0.0001695000
   0.0009394100   -0.0000842700   -0.0001574000
   0.0013975200   -0.0005514300    0.0002526500
   0.0013929800   -0.0000405800    0.0002651200
   0.0013922600   -0.0000728100    0.0002655500
   0.0013922400   -0.0000527100    0.0002652000
   0.0013919100   -0.0000783900    0.0002641500
   0.0013932600   -0.0000532300    0.0002658900
   0.0013918400   -0.0000035000    0.0002646700
   0.0013923800   -0.0000448600    0.0002650700
  -0.0010679200   -0.0001755800    0.0027226500
  -0.0007929700   -0.0003364400    0.0022201100
  -0.0009130100   -0.0001709100    0.0023418400
  -0.0011931300   -0.0003279100    0.0028354900
  -0.0008668700   -0.0002087600    0.0023250200
  -0.0011237300   -0.0002264400    0.0027610800
  -0.0011165000   -0.0002109100    0.0027285600
  -0.0008599400   -0.0002216600    0.0023012000
  -0.0008333800   -0.0009141300   -0.0039706200
  -0.0004818100   -0.0002586100   -0.0041421900
  -0.0006500500   -0.0008893100   -0.0042841400
  -0.0009781800   -0.0002567200   -0.0041132800
  -0.0007308800   -0.0001574400   -0.0041006200
  -0.0007304700   -0.0001652200   -0.0041006200
  -0.0007342600   -0.0001578300   -0.0041539400
  -0.0007344600   -0.0001663300   -0.0041540200
  -0.0017958000    0.0004914800   -0.0051106100
  -0.0017923000    0.0003148600   -0.0051148300
  -0.0017918000    0.0002299100   -0.0051118200
  -0.0017920400    0.0003472100   -0.0051126900
  -0.0017899700    0.0004428300   -0.0051095900
  -0.0017933400    0.0002401100   -0.0051102100
  -0.0017921600    0.0003046100   -0.0051128900
  -0.0017918700    0.0003970200   -0.0051123600
  -0.0012807800   -0.0004062000    0.0008531500
  -0.0013179900   -0.0001516000    0.0012193500
  -0.0012961200   -0.0004017800    0.0015867300
  -0.0012641500   -0.0001525600    0.0012260200
  -0.0012405800   -0.0003953800    0.0014250600
  -0.0013244600   -0.0001480300    0.0012251000
  -0.0013370600   -0.0003956300    0.0010207100
  -0.0012585300   -0.0001482300    0.0012211100

1    
  0.0001093573140055   0.0000000698491566   0.0099994020307714
   0.0420407600    0.0000424300   -0.5216426200
  -0.0004961300   -0.0000304800    0.0015771700
  -0.0005603700   -0.0000304800    0.0015542500
  -0.0005276600   -0.0000302800    0.0015783100
  -0.0005439600   -0.0000304300    0.0016229300
  -0.0004996600   -0.0000303300    0.0015997100
  -0.0005489700   -0.0000303700    0.0016197300
  -0.0005244600   -0.0000303300    0.0016308700
   0.0396598600   -0.0000543500    0.1020954200
   0.0021810300   -0.0000936000   -0.0002174100
   0.0023257900   -0.0000939000   -0.0002505400
   0.0022225000   -0.0000933900   -0.0002436400
   0.0022893400   -0.0000935300   -0.0001754000
   0.0021953100   -0.0000936000   -0.0002981800
   0.0022587400   -0.0000937700   -0.0002276600
   0.0022161400   -0.0000936300   -0.0002377500
  -0.0340576100    0.0002163200    0.2866182400
  -0.0006541900   -0.0000109500    0.0005981300
  -0.0006681000   -0.0000109700    0.0006032600
  -0.0006607100   -0.0000110100    0.0006047200
  -0.0006546300   -0.0000110000    0.0006148500
  -0.0006869900   -0.0000109900    0.0006165900
  -0.0006585200   -0.0000109900    0.0006159100
  -0.0006634700   -0.0000110300    0.0006156400
  -0.0329981400    0.0643346400    0.0687357600
   0.0003254200    0.0000989600    0.0017013600
   0.0002954100    0.0000768100    0.0017013600
   0.0003237400    0.0000752700    0.0017052400
   0.0002958100    0.0000687300    0.0016994800
   0.0002894500    0.0000792900    0.0016754900
   0.0003015700    0.0000915300    0.0016925800
   0.0002924500    0.0000890200    0.0016814200
  -0.0332039600   -0.0644565600    0.0689365500
   0.0002272200    0.0001331100    0.0016293800
   0.0001972800    0.0001552200    0.0016293500
   0.0002257200    0.0001567400    0.0016332500
   0.0001977400    0.0001633100    0.0016274400
   0.0001913400    0.0001526800    0.0016034700
   0.0002034500    0.0001405300    0.0016204700
   0.0001943800    0.0001430100    0.0016093300
  -0.0051993700    0.0045043700   -0.0047462900
   0.0009389200    0.0001969600    0.0000544800
   0.0008563900    0.0001022700    0.0000932500
   0.0009490000    0.0001626800    0.0000724100
   0.0009382400    0.0001744800    0.0000701600
   0.0009536700    0.0001794700    0.0000878500
   0.0009410500    0.0002248300    0.0000928300
   0.0009705600    0.0002384900    0.0000850700
  -0.0051651300   -0.0043697000   -0.0049503900
   0.0009153900   -0.0000559000   -0.0001855200
   0.0008327300    0.0000390800   -0.0001467300
   0.0009260400   -0.0000223400   -0.0001678300
   0.0009149100   -0.0000337300   -0.0001700400
   0.0009304100   -0.0000386200   -0.0001522500
   0.0009178100   -0.0000838000   -0.0001475100
   0.0009473000   -0.0000975500   -0.0001551500
   0.0338025300   -0.0000221000    0.0076190400
   0.0014177700   -0.0000477700    0.0003233600
   0.0013941700   -0.0000476500    0.0003328700
   0.0014071300   -0.0000477100    0.0003140900
   0.0012582300   -0.0000479800    0.0003328600
   0.0014796200   -0.0000478400    0.0003923000
   0.0013396600   -0.0000474300    0.0002452600
   0.0013966600   -0.0000477000    0.0002680700
  -0.0010246300   -0.0003458700    0.0029006800
  -0.0009530400   -0.0003481300    0.0026229400
  -0.0010249800   -0.0000655900    0.0029005000
  -0.0009525300   -0.0000636900    0.0026239700
  -0.0011103900   -0.0003010100    0.0021859700
  -0.0008187500   -0.0004900300    0.0024081000
  -0.0011116300   -0.0001102900    0.0021865300
  -0.0008168900    0.0000790500    0.0024077000
  -0.0011169700   -0.0010648800   -0.0040111400
  -0.0005924400   -0.0002876000   -0.0041445200
  -0.0011168500    0.0007360000   -0.0040106100
  -0.0005914400   -0.0000396100   -0.0041439800
  -0.0007156400   -0.0001332000   -0.0041143300
  -0.0007394900   -0.0001331100   -0.0041480900
  -0.0007156200   -0.0001951200   -0.0041143500
  -0.0007395100   -0.0001951700   -0.0041482600
  -0.0023403500    0.0003297500   -0.0044523700
  -0.0018828300    0.0003298000   -0.0051965200
  -0.0017580800    0.0003294500   -0.0050107500
  -0.0018208600    0.0003295700   -0.0050790100
  -0.0010429100    0.0003287400   -0.0041155000
  -0.0019283300    0.0003295300   -0.0049988800
  -0.0017720000    0.0003293600   -0.0051692200
  -0.0018051100    0.0003294900   -0.0051436800
  -0.0010206800    0.0001363200    0.0015111800
  -0.0013055700   -0.0001286200    0.0011743500
  -0.0010202000   -0.0004408300    0.0015154400
  -0.0013054600   -0.0001713300    0.0011743900
  -0.0012658600   -0.0001133200    0.0012870500
  -0.0013657500   -0.0001163300    0.0012492600
  -0.0012661900   -0.0001862600    0.0012871400
  -0.0013656100   -0.0001835000    0.0012493200

1    
 -0.0001093573140055  -0.0000000698491566  -0.0099994020307714
  -0.0474810000   -0.0000575700    0.5472599900
  -0.0005746700   -0.0000301900    0.0016664700
  -0.0005114000   -0.0000302400    0.0016888600
  -0.0005430900   -0.0000304200    0.0016648300
  -0.0005268800   -0.0000302900    0.0016205600
  -0.0005703200   -0.0000303400    0.0016439300
  -0.0005213300   -0.0000303500    0.0016236200
  -0.0005458300   -0.0000303300    0.0016125100
  -0.0333120100   -0.0001333500   -0.1026125600
   0.0022888000   -0.0000935400   -0.0002426500
   0.0021438600   -0.0000933600   -0.0002095900
   0.0022467300   -0.0000938200   -0.0002163100
   0.0021806900   -0.0000938100   -0.0002843500
   0.0022732000   -0.0000936300   -0.0001642500
   0.0022111000   -0.0000934100   -0.0002333700
   0.0022530800   -0.0000935800   -0.0002230400
   0.0347575800   -0.0002615200   -0.3044123800
  -0.0006732100   -0.0000111000    0.0006288500
  -0.0006599000   -0.0000111000    0.0006237300
  -0.0006670900   -0.0000110600    0.0006220000
  -0.0006730300   -0.0000110700    0.0006122800
  -0.0006409000   -0.0000110600    0.0006103400
  -0.0006691400   -0.0000110700    0.0006112700
  -0.0006643300   -0.0000110300    0.0006113900
   0.0336531400   -0.0640354600   -0.0671989200
   0.0002582000    0.0000762600    0.0016642100
   0.0002884800    0.0000988300    0.0016638200
   0.0002599300    0.0001003600    0.0016604100
   0.0002882100    0.0001064300    0.0016665500
   0.0002945700    0.0000963200    0.0016900600
   0.0002825800    0.0000837900    0.0016733800
   0.0002914900    0.0000862700    0.0016842700
   0.0336513400    0.0645983900   -0.0675421800
   0.0001602300    0.0001557200    0.0015920000
   0.0001904700    0.0001332100    0.0015916500
   0.0001618100    0.0001317000    0.0015882200
   0.0001901100    0.0001255900    0.0015944000
   0.0001964800    0.0001357500    0.0016179300
   0.0001845600    0.0001482100    0.0016013000
   0.0001934100    0.0001457600    0.0016121900
   0.0070583000   -0.0040235200    0.0049290300
   0.0009811000    0.0002445400    0.0001127300
   0.0010631800    0.0003404700    0.0000740600
   0.0009707600    0.0002798400    0.0000952500
   0.0009804600    0.0002675600    0.0000979100
   0.0009656500    0.0002626500    0.0000804500
   0.0009774300    0.0002164300    0.0000755800
   0.0009486300    0.0002034200    0.0000829700
   0.0069782600    0.0041708800    0.0046529100
   0.0009581400   -0.0001038400   -0.0001276900
   0.0010403300   -0.0002000300   -0.0001663800
   0.0009472200   -0.0001384100   -0.0001449200
   0.0009572700   -0.0001265400   -0.0001422900
   0.0009423900   -0.0001217200   -0.0001598500
   0.0009541800   -0.0000757000   -0.0001645000
   0.0009253900   -0.0000625800   -0.0001572300
  -0.0305437000   -0.0000724700   -0.0067688600
   0.0013658700   -0.0000476700    0.0002012200
   0.0013901500   -0.0000478000    0.0001926500
   0.0013769300   -0.0000477200    0.0002113400
   0.0015230300   -0.0000474700    0.0001939000
   0.0013056800   -0.0000476000    0.0001354100
   0.0014436300   -0.0000480100    0.0002804000
   0.0013876200   -0.0000477400    0.0002578100
  -0.0009575600   -0.0000636600    0.0021565200
  -0.0010350100   -0.0000626400    0.0024348400
  -0.0009573200   -0.0003478500    0.0021566600
  -0.0010349100   -0.0003480600    0.0024335800
  -0.0008780600   -0.0001067000    0.0028732400
  -0.0011597100    0.0000740000    0.0026523200
  -0.0008764700   -0.0003049700    0.0028728000
  -0.0011610300   -0.0004859800    0.0026528200
  -0.0003535000    0.0007298600   -0.0042435200
  -0.0008702000   -0.0000442800   -0.0041075700
  -0.0003537000   -0.0010575200   -0.0042440400
  -0.0008711400   -0.0002850100   -0.0041081000
  -0.0007507500   -0.0001956700   -0.0041423200
  -0.0007276700   -0.0001951300   -0.0041090500
  -0.0007508400   -0.0001325400   -0.0041422800
  -0.0007275200   -0.0001331200   -0.0041089300
  -0.0012635900    0.0003294400   -0.0057515600
  -0.0016979700    0.0003293300   -0.0050259500
  -0.0018267300    0.0003297400   -0.0052149700
  -0.0017652700    0.0003296000   -0.0051465100
  -0.0025580500    0.0003304300   -0.0061236300
  -0.0016540900    0.0003296700   -0.0052294000
  -0.0018139000    0.0003298700   -0.0050566700
  -0.0017797900    0.0003296700   -0.0050819400
  -0.0015602400   -0.0004422100    0.0009297500
  -0.0012766300   -0.0001714900    0.0012706400
  -0.0015607700    0.0001469500    0.0009255200
  -0.0012767800   -0.0001283700    0.0012706700
  -0.0013153700   -0.0001856500    0.0011569300
  -0.0012169800   -0.0001838400    0.0011950200
  -0.0013150900   -0.0001145700    0.0011568200
  -0.0012171500   -0.0001161100    0.0011950100

9    
  0.0099993962185870   0.0000015232732245   0.0001098769463797
   0.1635316400    0.0000605900    0.0350129100
  -0.0006258600   -0.0000305300    0.0015745400
  -0.0003883500   -0.0000302700    0.0017161100
  -0.0006807400   -0.0000303000    0.0016160800
  -0.0004631400   -0.0000302600    0.0016806400
  -0.0006183600   -0.0000303700    0.0015885100
  -0.0004672300   -0.0000303600    0.0016502400
  -0.0005739400   -0.0000303500    0.0016090900
  -0.5007126100   -0.0001551000    0.0301025500
   0.0023037200   -0.0000935300   -0.0002125300
   0.0019518000   -0.0000936800   -0.0001983600
   0.0024753400   -0.0000940100   -0.0002716700
   0.0021498300   -0.0000935700   -0.0002050800
   0.0023755000   -0.0000936400   -0.0001208200
   0.0021317600   -0.0000935600   -0.0002641600
   0.0022922500   -0.0000936700   -0.0002193500
   0.0036294400   -0.0000063600    0.0023069500
  -0.0006722900   -0.0000110700    0.0006176700
  -0.0006624900   -0.0000110200    0.0006134300
  -0.0006675300   -0.0000110400    0.0006260400
  -0.0006317300   -0.0000110700    0.0006271800
  -0.0007228300   -0.0000109600    0.0006365700
  -0.0006565700   -0.0000109000    0.0006148900
  -0.0006732800   -0.0000110100    0.0006170100
   0.0224010800    0.0029608500    0.0127608500
   0.0002849900    0.0001232000    0.0016866700
   0.0002742600    0.0000655300    0.0016653400
   0.0002385600    0.0000878500    0.0016568200
   0.0002869400    0.0000930300    0.0016757900
   0.0002812000    0.0000683400    0.0016578600
   0.0002842100    0.0000830600    0.0016780800
   0.0002826000    0.0000829000    0.0016813200
   0.0222870600   -0.0026730100    0.0126822700
   0.0001868100    0.0001088900    0.0016145200
   0.0001761100    0.0001664600    0.0015931800
   0.0001407200    0.0001443000    0.0015846800
   0.0001888800    0.0001389800    0.0016036300
   0.0001831200    0.0001636000    0.0015858600