natom:   64
displacements:
- atom:    1
  direction:
    [   0.0000000000000000,  0.0000000000000000,  1.0000000000000000 ]
  displacement:
    [   0.0040848989666515,  0.0040848995548162,  0.0081625483802127 ]
- atom:    1
  direction:
    [   0.0000000000000000,  0.0000000000000000, -1.0000000000000000 ]
  displacement:
    [  -0.0040848989666515, -0.0040848995548162, -0.0081625483802127 ]
- atom:    9
  direction:
    [   0.0000000000000000,  0.0000000000000000,  1.0000000000000000 ]
  displacement:
    [   0.0040848989666515,  0.0040848995548162,  0.0081625483802127 ]
- atom:    9
  direction:
    [   0.0000000000000000,  0.0000000000000000, -1.0000000000000000 ]
  displacement:
    [  -0.0040848989666515, -0.0040848995548162, -0.0081625483802127 ]
- atom:   17
  direction:
    [   0.0000000000000000,  0.0000000000000000,  1.0000000000000000 ]
  displacement:
    [   0.0040848989666515,  0.0040848995548162,  0.0081625483802127 ]
- atom:   17
  direction:
    [   0.0000000000000000,  0.0000000000000000, -1.0000000000000000 ]
  displacement:
    [  -0.0040848989666515, -0.0040848995548162, -0.0081625483802127 ]
- atom:   25
  direction:
    [   0.0000000000000000,  0.0000000000000000,  1.0000000000000000 ]
  displacement:
    [   0.0040848989666515,  0.0040848995548162,  0.0081625483802127 ]
- atom:   25
  direction:
    [   0.0000000000000000,  0.0000000000000000, -1.0000000000000000 ]
  displacement:
    [  -0.0040848989666515, -0.0040848995548162, -0.0081625483802127 ]
- atom:   33
  direction:
    [   1.0000000000000000,  0.0000000000000000,  0.0000000000000000 ]
  displacement:
    [   0.0100000000000000,  0.0000000007199255,  0.0000000000000000 ]
- atom:   33
  direction:
    [  -1.0000000000000000,  0.0000000000000000,  0.0000000000000000 ]
  displacement:
    [  -0.0100000000000000, -0.0000000007199255,  0.0000000000000000 ]
- atom:   33
  direction:
    [   0.0000000000000000,  1.0000000000000000,  0.0000000000000000 ]
  displacement:
    [  -0.0000000007199255,  0.0100000000000000, -0.0000000000000000 ]
- atom:   33
  direction:
    [   0.0000000000000000, -1.0000000000000000,  0.0000000000000000 ]
  displacement:
    [   0.0000000007199255, -0.0100000000000000,  0.0000000000000000 ]
- atom:   33
  direction:
    [   0.0000000000000000,  0.0000000000000000,  1.0000000000000000 ]
  displacement:
    [   0.0040848989666515,  0.0040848995548162,  0.0081625483802127 ]
- atom:   33
  direction:
    [   0.0000000000000000,  0.0000000000000000, -1.0000000000000000 ]
  displacement:
    [  -0.0040848989666515, -0.0040848995548162, -0.0081625483802127 ]
lattice:
- [   11.318905952849329,   0.000000814876942,   0.000000000000000 ]
- [   -0.000000814876942,  11.318905952849329,  -0.000000000000001 ]
- [    5.659452568986194,   5.659453383863143,  11.308861192651801 ]
atoms:
- symbol: Cu # 1
  position: [   0.00000000000000,  0.00000000000000,  0.00000000000000 ]
- symbol: Cu # 2
  position: [   0.50000000000000,  0.00000000000000,  0.00000000000000 ]
- symbol: Cu # 3
  position: [   0.00000000000000,  0.50000000000000,  0.00000000000000 ]
- symbol: Cu # 4
  position: [   0.50000000000000,  0.50000000000000,  0.00000000000000 ]
- symbol: Cu # 5
  position: [   0.00000000000000,  0.00000000000000,  0.50000000000000 ]
- symbol: Cu # 6
  position: [   0.50000000000000,  0.00000000000000,  0.50000000000000 ]
- symbol: Cu # 7
  position: [   0.00000000000000,  0.50000000000000,  0.50000000000000 ]
- symbol: Cu # 8
  position: [   0.50000000000000,  0.50000000000000,  0.50000000000000 ]
- symbol: Cu # 9
  position: [   0.37500000000000,  0.12500000000000,  0.25000000000000 ]
- symbol: Cu # 10
  position: [   0.87500000000000,  0.12500000000000,  0.25000000000000 ]
- symbol: Cu # 11
  position: [   0.37500000000000,  0.62500000000000,  0.25000000000000 ]
- symbol: Cu # 12
  position: [   0.87500000000000,  0.62500000000000,  0.25000000000000 ]
- symbol: Cu # 13
  position: [   0.37500000000000,  0.12500000000000,  0.75000000000000 ]
- symbol: Cu # 14
  position: [   0.87500000000000,  0.12500000000000,  0.75000000000000 ]
- symbol: Cu # 15
  position: [   0.37500000000000,  0.62500000000000,  0.75000000000000 ]
- symbol: Cu # 16
  position: [   0.87500000000000,  0.62500000000000,  0.75000000000000 ]
- symbol: Zn # 17
  position: [   0.25000000000000,  0.25000000000000,  0.00000000000000 ]
- symbol: Zn # 18
  position: [   0.75000000000000,  0.25000000000000,  0.00000000000000 ]
- symbol: Zn # 19
  position: [   0.25000000000000,  0.75000000000000,  0.00000000000000 ]
- symbol: Zn # 20
  position: [   0.75000000000000,  0.75000000000000,  0.00000000000000 ]
- symbol: Zn # 21
  position: [   0.25000000000000,  0.25000000000000,  0.50000000000000 ]
- symbol: Zn # 22
  position: [   0.75000000000000,  0.25000000000000,  0.50000000000000 ]
- symbol: Zn # 23
  position: [   0.25000000000000,  0.75000000000000,  0.50000000000000 ]
- symbol: Zn # 24
  position: [   0.75000000000000,  0.75000000000000,  0.50000000000000 ]
- symbol: Sn # 25
  position: [   0.12500000000000,  0.37500000000000,  0.25000000000000 ]
- symbol: Sn # 26
  position: [   0.62500000000000,  0.37500000000000,  0.25000000000000 ]
- symbol: Sn # 27
  position: [   0.12500000000000,  0.87500000000000,  0.25000000000000 ]
- symbol: Sn # 28
  position: [   0.62500000000000,  0.87500000000000,  0.25000000000000 ]
- symbol: Sn # 29
  position: [   0.12500000000000,  0.37500000000000,  0.75000000000000 ]
- symbol: Sn # 30
  position: [   0.62500000000000,  0.37500000000000,  0.75000000000000 ]
- symbol: Sn # 31
  position: [   0.12500000000000,  0.87500000000000,  0.75000000000000 ]
- symbol: Sn # 32
  position: [   0.62500000000000,  0.87500000000000,  0.75000000000000 ]
- symbol: Se # 33
  position: [   0.05491582244685,  0.07071934570998,  0.11933061747471 ]
- symbol: Se # 34
  position: [   0.55491582244685,  0.07071934570998,  0.11933061747471 ]
- symbol: Se # 35
  position: [   0.05491582244685,  0.57071934570998,  0.11933061747471 ]
- symbol: Se # 36
  position: [   0.55491582244685,  0.57071934570998,  0.11933061747471 ]
- symbol: Se # 37
  position: [   0.05491582244685,  0.07071934570998,  0.61933061747471 ]
- symbol: Se # 38
  position: [   0.55491582244685,  0.07071934570998,  0.61933061747471 ]
- symbol: Se # 39
  position: [   0.05491582244685,  0.57071934570998,  0.61933061747471 ]
- symbol: Se # 40
  position: [   0.55491582244685,  0.57071934570998,  0.61933061747471 ]
- symbol: Se # 41
  position: [   0.32575356007844,  0.30995003681530,  0.11933061747471 ]
- symbol: Se # 42
  position: [   0.82575356007844,  0.30995003681530,  0.11933061747471 ]
- symbol: Se # 43
  position: [   0.32575356007844,  0.80995003681530,  0.11933061747471 ]
- symbol: Se # 44
  position: [   0.82575356007844,  0.80995003681530,  0.11933061747471 ]
- symbol: Se # 45
  position: [   0.32575356007844,  0.30995003681530,  0.61933061747471 ]
- symbol: Se # 46
  position: [   0.82575356007844,  0.30995003681530,  0.61933061747471 ]
- symbol: Se # 47
  position: [   0.32575356007844,  0.80995003681530,  0.61933061747471 ]
- symbol: Se # 48
  position: [   0.82575356007844,  0.80995003681530,  0.61933061747471 ]
- symbol: Se # 49
  position: [   0.42928065429002,  0.17424643992156,  0.38066938252529 ]
- symbol: Se # 50
  position: [   0.92928065429002,  0.17424643992156,  0.38066938252529 ]
- symbol: Se # 51
  position: [   0.42928065429002,  0.67424643992156,  0.38066938252529 ]
- symbol: Se # 52
  position: [   0.92928065429002,  0.67424643992156,  0.38066938252529 ]
- symbol: Se # 53
  position: [   0.42928065429002,  0.17424643992156,  0.88066938252529 ]
- symbol: Se # 54
  position: [   0.92928065429002,  0.17424643992156,  0.88066938252529 ]
- symbol: Se # 55
  position: [   0.42928065429002,  0.67424643992156,  0.88066938252529 ]
- symbol: Se # 56
  position: [   0.92928065429002,  0.67424643992156,  0.88066938252529 ]
- symbol: Se # 57
  position: [   0.19004996318470,  0.44508417755315,  0.38066938252529 ]
- symbol: Se # 58
  position: [   0.69004996318470,  0.44508417755315,  0.38066938252529 ]
- symbol: Se # 59
  position: [   0.19004996318470,  0.94508417755315,  0.38066938252529 ]
- symbol: Se # 60
  position: [   0.69004996318470,  0.94508417755315,  0.38066938252529 ]
- symbol: Se # 61
  position: [   0.19004996318470,  0.44508417755315,  0.88066938252529 ]
- symbol: Se # 62
  position: [   0.69004996318470,  0.44508417755315,  0.88066938252529 ]
- symbol: Se # 63
  position: [   0.19004996318470,  0.94508417755315,  0.88066938252529 ]
- symbol: Se # 64
  position: [   0.69004996318470,  0.94508417755315,  0.88066938252529 ]
